
                                 *****************
                                 * O   R   C   A *
                                 *****************

           --- An Ab Initio, DFT and Semiempirical electronic structure package ---

                  #######################################################
                  #                        -***-                        #
                  #          Department of theory and spectroscopy      #
                  #               Directorship: Frank Neese             #
                  #        Max Planck Institute fuer Kohlenforschung    #
                  #                Kaiser Wilhelm Platz 1               #
                  #                 D-45470 Muelheim/Ruhr               #
                  #                      Germany                        #
                  #                                                     #
                  #                  All rights reserved                #
                  #                        -***-                        #
                  #######################################################


                         Program Version 4.2.1 -  RELEASE  -


 With contributions from (in alphabetic order):
   Daniel Aravena         : Magnetic Suceptibility
   Michael Atanasov       : Ab Initio Ligand Field Theory (pilot matlab implementation)
   Alexander A. Auer      : GIAO ZORA, VPT2
   Ute Becker             : Parallelization
   Giovanni Bistoni       : ED, misc. LED, open-shell LED, HFLD
   Martin Brehm           : Molecular dynamics
   Dmytro Bykov           : SCF Hessian
   Vijay G. Chilkuri      : MRCI spin determinant printing, contributions to CSF-ICE
   Dipayan Datta          : RHF DLPNO-CCSD density
   Achintya Kumar Dutta   : EOM-CC, STEOM-CC
   Dmitry Ganyushin       : Spin-Orbit,Spin-Spin,Magnetic field MRCI
   Miquel Garcia          : C-PCM Hessian, Gaussian charge scheme
   Yang Guo               : DLPNO-NEVPT2, CIM, IAO-localization
   Andreas Hansen         : Spin unrestricted coupled pair/coupled cluster methods
   Benjamin Helmich-Paris : CASSCF linear response (MC-RPA)
   Lee Huntington         : MR-EOM, pCC
   Robert Izsak           : Overlap fitted RIJCOSX, COSX-SCS-MP3, EOM
   Christian Kollmar      : KDIIS, OOCD, Brueckner-CCSD(T), CCSD density
   Simone Kossmann        : Meta GGA functionals, TD-DFT gradient, OOMP2, MP2 Hessian
   Martin Krupicka        : AUTO-CI
   Lucas Lang             : DCDCAS
   Dagmar Lenk            : GEPOL surface, SMD
   Dimitrios Liakos       : Extrapolation schemes; Compound Job, initial MDCI parallelization
   Dimitrios Manganas     : Further ROCIS development; embedding schemes
   Dimitrios Pantazis     : SARC Basis sets
   Taras Petrenko         : DFT Hessian,TD-DFT gradient, ASA, ECA, R-Raman, ABS, FL, XAS/XES, NRVS
   Peter Pinski           : DLPNO-MP2, DLPNO-MP2 Gradient
   Christoph Reimann      : Effective Core Potentials
   Marius Retegan         : Local ZFS, SOC
   Christoph Riplinger    : Optimizer, TS searches, QM/MM, DLPNO-CCSD(T), (RO)-DLPNO pert. Triples
   Tobias Risthaus        : Range-separated hybrids, TD-DFT gradient, RPA, STAB
   Michael Roemelt        : Original ROCIS implementation
   Masaaki Saitow         : Open-shell DLPNO-CCSD energy and density
   Barbara Sandhoefer     : DKH picture change effects
   Avijit Sen             : IP-ROCIS
   Kantharuban Sivalingam : CASSCF convergence, NEVPT2, FIC-MRCI
   Bernardo de Souza      : ESD, SOC TD-DFT
   Georgi Stoychev        : AutoAux, RI-MP2 NMR
   Willem Van den Heuvel  : Paramagnetic NMR
   Boris Wezisla          : Elementary symmetry handling
   Frank Wennmohs         : Technical directorship


 We gratefully acknowledge several colleagues who have allowed us to
 interface, adapt or use parts of their codes:
   Stefan Grimme, W. Hujo, H. Kruse,             : VdW corrections, initial TS optimization,
                  C. Bannwarth                     DFT functionals, gCP, sTDA/sTD-DF
   Ed Valeev, F. Pavosevic, A. Kumar             : LibInt (2-el integral package), F12 methods
   Garnet Chan, S. Sharma, J. Yang, R. Olivares  : DMRG
   Ulf Ekstrom                                   : XCFun DFT Library
   Mihaly Kallay                                 : mrcc  (arbitrary order and MRCC methods)
   Andreas Klamt, Michael Diedenhofen            : otool_cosmo (COSMO solvation model)
   Jiri Pittner, Ondrej Demel                    : Mk-CCSD
   Frank Weinhold                                : gennbo (NPA and NBO analysis)
   Christopher J. Cramer and Donald G. Truhlar   : smd solvation model
   Lars Goerigk                                  : TD-DFT with DH, B97 family of functionals
   V. Asgeirsson, H. Jonsson                     : NEB implementation
   FAccTs GmbH                                   : IRC, NEB, NEB-TS, Multilevel, MM, QM/MM, CI optimization
   S Lehtola, MJT Oliveira, MAL Marques          : LibXC Library


 Your calculation uses the libint2 library for the computation of 2-el integrals
 For citations please refer to: http://libint.valeyev.net

 Your ORCA version has been built with support for libXC version: 4.2.3
 For citations please refer to: https://tddft.org/programs/libxc/

 This ORCA versions uses:
   CBLAS   interface :  Fast vector & matrix operations
   LAPACKE interface :  Fast linear algebra routines
   SCALAPACK package :  Parallel linear algebra routines




***************************************
The coordinates will be read from file: struc.xyz
***************************************


Your calculation utilizes the atom-pairwise dispersion correction
with the Becke-Johnson damping scheme (D3BJ)
Cite in your paper:
S.Grimme, S.Ehrlich, L.Goerigk, J Comput Chem, (2011), 32, 1456–1465 
S.Grimme, J.Antony, S.Ehrlich and H.Krieg, J.Chem.Phys., 132, (2010), 154104 
   

Your calculation employs the composite approach B97-3c by Grimme and coworkers.
For the correct reference, please check the publication list of the Grimme group:
http://www.thch.uni-bonn.de/tc/index.php?section=publikationen&subsection=grimme#2017
   

XCFun DFT library Copyright 2009-2010 Ulf Ekstrom and contributors.
See http://admol.org/xcfun for more information. This is free soft-
ware; see the source code for copying conditions. There is ABSOLUTELY
NO WARRANTY; not even for MERCHANTABILITY or FITNESS FOR A PARTICULAR
PURPOSE. For details see the documentation. Scientific users of this 
library should cite U. Ekstrom, L. Visscher, R. Bast, A. J. Thorvald-
sen and K. Ruud; J.Chem.Theor.Comp. 2010, DOI: 10.1021/ct100117s
XCFun Version 0.99 
----- Orbital basis set information -----
Your calculation utilizes the basis: def2-mTZVP
----- AuxJ basis set information -----
Your calculation utilizes the basis: def2-mTZVP/J
================================================================================
                                        WARNINGS
                       Please study these warnings very carefully!
================================================================================


INFO   : the flag for use of LIBINT has been found!

================================================================================
                                       INPUT FILE
================================================================================
NAME = 01_B97-3c.inp
|  1> ! B97-3c TightSCF Grid3 NOSOSCF
|  2> %maxcore 3000 #memory in MB
|  3> %pal
|  4>     nprocs 4
|  5> end
|  6> * xyzfile 0 1 struc.xyz
|  7> 
|  8>                          ****END OF INPUT****
================================================================================

                       ****************************
                       * Single Point Calculation *
                       ****************************

---------------------------------
CARTESIAN COORDINATES (ANGSTROEM)
---------------------------------
  C      0.590548    1.437715   -0.512024
  H     -0.344397    1.997358   -0.555829
  H      0.703646    0.905509   -1.454723
  H      1.405786    2.155942   -0.440925
  C      0.590548    0.483546    0.676489
  H      1.520768   -0.089762    0.686162
  H      0.575510    1.063339    1.600853
  C     -0.590548   -0.483546    0.676489
  H     -1.520768    0.089762    0.686162
  H     -0.575510   -1.063339    1.600853
  C     -0.590548   -1.437715   -0.512024
  H      0.344397   -1.997358   -0.555829
  H     -1.405786   -2.155942   -0.440925
  H     -0.703646   -0.905509   -1.454723

----------------------------
CARTESIAN COORDINATES (A.U.)
----------------------------
  NO LB      ZA    FRAG     MASS         X           Y           Z
   0 C     6.0000    0    12.011    1.115974    2.716888   -0.967586
   1 H     1.0000    0     1.008   -0.650816    3.774460   -1.050365
   2 H     1.0000    0     1.008    1.329698    1.711164   -2.749029
   3 H     1.0000    0     1.008    2.656551    4.074140   -0.833228
   4 C     6.0000    0    12.011    1.115974    0.913770    1.278378
   5 H     1.0000    0     1.008    2.873835   -0.169626    1.296657
   6 H     1.0000    0     1.008    1.087556    2.009419    3.025173
   7 C     6.0000    0    12.011   -1.115974   -0.913770    1.278378
   8 H     1.0000    0     1.008   -2.873835    0.169626    1.296657
   9 H     1.0000    0     1.008   -1.087556   -2.009419    3.025173
  10 C     6.0000    0    12.011   -1.115974   -2.716888   -0.967586
  11 H     1.0000    0     1.008    0.650816   -3.774460   -1.050365
  12 H     1.0000    0     1.008   -2.656551   -4.074140   -0.833228
  13 H     1.0000    0     1.008   -1.329698   -1.711164   -2.749029

--------------------------------
INTERNAL COORDINATES (ANGSTROEM)
--------------------------------
 C      0   0   0     0.000000000000     0.00000000     0.00000000
 H      1   0   0     1.090523414925     0.00000000     0.00000000
 H      1   2   0     1.088446502425   107.77149676     0.00000000
 H      1   2   3     1.088814992537   107.81979251   115.80845856
 C      1   2   3     1.524139636559   110.64630907   237.64550015
 H      5   1   2     1.092741908317   109.59406787   178.26142357
 H      5   1   2     1.091253805853   109.14235693   294.46227805
 C      5   1   2     1.526517178967   113.36659337    56.18475567
 H      8   5   1     1.092741908317   109.04217364   301.31042544
 H      8   5   1     1.091253805853   109.02236098   185.48349994
 C      8   5   1     1.524139636559   113.36659337    63.69395707
 H     11   8   5     1.090523414925   110.64630907    56.18475567
 H     11   8   5     1.088814992537   111.22554233   175.99772662
 H     11   8   5     1.088446502425   111.67049669   296.13861007

---------------------------
INTERNAL COORDINATES (A.U.)
---------------------------
 C      0   0   0     0.000000000000     0.00000000     0.00000000
 H      1   0   0     2.060790596836     0.00000000     0.00000000
 H      1   2   0     2.056865801008   107.77149676     0.00000000
 H      1   2   3     2.057562146403   107.81979251   115.80845856
 C      1   2   3     2.880206502951   110.64630907   237.64550015
 H      5   1   2     2.064982941778   109.59406787   178.26142357
 H      5   1   2     2.062170835662   109.14235693   294.46227805
 C      5   1   2     2.884699406973   113.36659337    56.18475567
 H      8   5   1     2.064982941778   109.04217364   301.31042544
 H      8   5   1     2.062170835662   109.02236098   185.48349994
 C      8   5   1     2.880206502951   113.36659337    63.69395707
 H     11   8   5     2.060790596836   110.64630907    56.18475567
 H     11   8   5     2.057562146403   111.22554233   175.99772662
 H     11   8   5     2.056865801008   111.67049669   296.13861007

---------------------
BASIS SET INFORMATION
---------------------
There are 2 groups of distinct atoms

 Group   1 Type C   : 11s6p1d contracted to 5s3p1d pattern {62111/411/1}
 Group   2 Type H   : 5s contracted to 3s pattern {311}

Atom   0C    basis set group =>   1
Atom   1H    basis set group =>   2
Atom   2H    basis set group =>   2
Atom   3H    basis set group =>   2
Atom   4C    basis set group =>   1
Atom   5H    basis set group =>   2
Atom   6H    basis set group =>   2
Atom   7C    basis set group =>   1
Atom   8H    basis set group =>   2
Atom   9H    basis set group =>   2
Atom  10C    basis set group =>   1
Atom  11H    basis set group =>   2
Atom  12H    basis set group =>   2
Atom  13H    basis set group =>   2
---------------------------------
AUXILIARY/J BASIS SET INFORMATION
---------------------------------
There are 2 groups of distinct atoms

 Group   1 Type C   : 8s3p3d contracted to 6s3p3d pattern {311111/111/111}
 Group   2 Type H   : 5s2p contracted to 3s1p pattern {311/2}

Atom   0C    basis set group =>   1
Atom   1H    basis set group =>   2
Atom   2H    basis set group =>   2
Atom   3H    basis set group =>   2
Atom   4C    basis set group =>   1
Atom   5H    basis set group =>   2
Atom   6H    basis set group =>   2
Atom   7C    basis set group =>   1
Atom   8H    basis set group =>   2
Atom   9H    basis set group =>   2
Atom  10C    basis set group =>   1
Atom  11H    basis set group =>   2
Atom  12H    basis set group =>   2
Atom  13H    basis set group =>   2

Checking for AutoStart:
The File: 01_B97-3c.gbw exists
Trying to determine its content:
     ... Fine, the file contains calculation information
     ... Fine, the calculation information was read
     ... Fine, the file contains a basis set
     ... Fine, the basis set was read
     ... Fine, the file contains a geometry
     ... Fine, the geometry was read
     ... Fine, the file contains a set of orbitals
     ... Fine, the orbitals can be read
     => possible old guess file was deleted
     => GBW file was renamed to GES file
     => GES file is set as startup file
     => Guess is set to MORead
     ... now leaving AutoStart



           ************************************************************
           *        Program running with 4 parallel MPI-processes     *
           *              working on a common directory               *
           ************************************************************
------------------------------------------------------------------------------
                           ORCA GTO INTEGRAL CALCULATION
                           -- RI-GTO INTEGRALS CHOSEN --
------------------------------------------------------------------------------

                         BASIS SET STATISTICS AND STARTUP INFO

Gaussian basis set:
 # of primitive gaussian shells          ...  122
 # of primitive gaussian functions       ...  186
 # of contracted shells                  ...   66
 # of contracted basis functions         ...  106
 Highest angular momentum                ...    2
 Maximum contraction depth               ...    6
Auxiliary gaussian basis set:
 # of primitive gaussian shells          ...  126
 # of primitive gaussian functions       ...  238
 # of contracted shells                  ...   88
 # of contracted aux-basis functions     ...  180
 Highest angular momentum                ...    2
 Maximum contraction depth               ...    3
Ratio of auxiliary to basis functions    ...  1.70
Integral package used                  ... LIBINT
 One Electron integrals                  ... done
 Ordering auxiliary basis shells         ... done
 Integral threshhold             Thresh  ...  2.500e-11
 Primitive cut-off               TCut    ...  2.500e-12
 Pre-screening matrix                    ... done
 Shell pair data                         ... 
 Ordering of the shell pairs             ... done (   0.000 sec) 2158 of 2211 pairs
 Determination of significant pairs      ... done (   0.000 sec)
 Creation of shell pair data             ... done (   0.000 sec)
 Storage of shell pair data              ... done (   0.003 sec)
 Shell pair data done in (   0.003 sec)
 Computing two index integrals           ... done
 Cholesky decomposition of the V-matrix  ... done


Timings:
 Total evaluation time                   ...   0.212 sec (  0.004 min)
 One electron matrix time                ...   0.015 sec (  0.000 min) =  7.2%
 Schwartz matrix evaluation time         ...   0.059 sec (  0.001 min) = 27.7%
 Two index repulsion integral time       ...   0.008 sec (  0.000 min) =  3.9%
 Cholesky decomposition of V             ...   0.111 sec (  0.002 min) = 52.6%
 Three index repulsion integral time     ...   0.000 sec (  0.000 min) =  0.0%



           ************************************************************
           *        Program running with 4 parallel MPI-processes     *
           *              working on a common directory               *
           ************************************************************
-------------------------------------------------------------------------------
                                 ORCA SCF
-------------------------------------------------------------------------------

------------
SCF SETTINGS
------------
Hamiltonian:
 Density Functional     Method          .... DFT(GTOs)
 Exchange Functional    Exchange        .... B973C
 Correlation Functional Correlation     .... B973C
 Gradients option       PostSCFGGA      .... off
   Density functional embedding theory  .... OFF
 RI-approximation to the Coulomb term is turned on
   Number of auxiliary basis functions  .... 180


General Settings:
 Integral files         IntName         .... 01_B97-3c
 Hartree-Fock type      HFTyp           .... RHF
 Total Charge           Charge          ....    0
 Multiplicity           Mult            ....    1
 Number of Electrons    NEL             ....   34
 Basis Dimension        Dim             ....  106
 Nuclear Repulsion      ENuc            ....    133.1146321248 Eh

Convergence Acceleration:
 DIIS                   CNVDIIS         .... on
   Start iteration      DIISMaxIt       ....    12
   Startup error        DIISStart       ....  0.200000
   # of expansion vecs  DIISMaxEq       ....     5
   Bias factor          DIISBfac        ....   1.050
   Max. coefficient     DIISMaxC        ....  10.000
 Newton-Raphson         CNVNR           .... off
 SOSCF                  CNVSOSCF        .... off
 Level Shifting         CNVShift        .... on
   Level shift para.    LevelShift      ....    0.2500
   Turn off err/grad.   ShiftErr        ....    0.0010
 Zerner damping         CNVZerner       .... off
 Static damping         CNVDamp         .... on
   Fraction old density DampFac         ....    0.7000
   Max. Damping (<1)    DampMax         ....    0.9800
   Min. Damping (>=0)   DampMin         ....    0.0000
   Turn off err/grad.   DampErr         ....    0.1000
 Fernandez-Rico         CNVRico         .... off

SCF Procedure:
 Maximum # iterations   MaxIter         ....   125
 SCF integral mode      SCFMode         .... Direct
   Integral package                     .... LIBINT
 Reset frequency        DirectResetFreq ....    20
 Integral Threshold     Thresh          ....  2.500e-11 Eh
 Primitive CutOff       TCut            ....  2.500e-12 Eh

Convergence Tolerance:
 Convergence Check Mode ConvCheckMode   .... Total+1el-Energy
 Convergence forced     ConvForced      .... 0
 Energy Change          TolE            ....  1.000e-08 Eh
 1-El. energy change                    ....  1.000e-05 Eh
 DIIS Error             TolErr          ....  5.000e-07


Diagonalization of the overlap matrix:
Smallest eigenvalue                        ... 3.651e-04
Time for diagonalization                   ...    0.043 sec
Threshold for overlap eigenvalues          ... 1.000e-08
Number of eigenvalues below threshold      ... 0
Time for construction of square roots      ...    0.006 sec
Total time needed                          ...    0.049 sec

---------------------
INITIAL GUESS: MOREAD
---------------------
Guess MOs are being read from file: 01_B97-3c.ges
Input Geometry matches current geometry (good)
Input basis set matches current basis set (good)
MOs were renormalized
MOs were reorthogonalized (Cholesky)
                      ------------------
                      INITIAL GUESS DONE (   0.0 sec)
                      ------------------
-------------------
DFT GRID GENERATION
-------------------

General Integration Accuracy     IntAcc      ...  4.340
Radial Grid Type                 RadialGrid  ... Gauss-Chebyshev
Angular Grid (max. acc.)         AngularGrid ... Lebedev-194
Angular grid pruning method      GridPruning ... 3 (G Style)
Weight generation scheme         WeightScheme... Becke
Basis function cutoff            BFCut       ...    1.0000e-11
Integration weight cutoff        WCut        ...    1.0000e-14
Grids for H and He will be reduced by one unit

# of grid points (after initial pruning)     ...  28396 (   0.0 sec)
# of grid points (after weights+screening)   ...  26288 (   0.0 sec)
nearest neighbour list constructed           ...    0.0 sec
Grid point re-assignment to atoms done       ...    0.0 sec
Grid point division into batches done        ...    0.0 sec
Reduced shell lists constructed in    0.1 sec

Total number of grid points                  ...    26288
Total number of batches                      ...      418
Average number of points per batch           ...       62
Average number of grid points per atom       ...     1878
Average number of shells per batch           ...    48.28 (73.16%)
Average number of basis functions per batch  ...    80.87 (76.29%)
Average number of large shells per batch     ...    39.77 (82.38%)
Average number of large basis fcns per batch ...    65.94 (81.54%)
Maximum spatial batch extension              ...  16.83, 16.35, 21.21 au
Average spatial batch extension              ...   0.87,  0.83,  0.88 au

Time for grid setup =    0.114 sec

--------------
SCF ITERATIONS
--------------
ITER       Energy         Delta-E        Max-DP      RMS-DP      [F,P]     Damp
               ***  Starting incremental Fock matrix formation  ***
  0   -158.3225314610   0.000000000000 0.00000016  0.00000001  0.0000006 0.7000
                 **** Energy Check signals convergence ****

               *****************************************************
               *                     SUCCESS                       *
               *           SCF CONVERGED AFTER   1 CYCLES          *
               *****************************************************

Setting up the final grid:

General Integration Accuracy     IntAcc      ...  4.670
Radial Grid Type                 RadialGrid  ... Gauss-Chebyshev
Angular Grid (max. acc.)         AngularGrid ... Lebedev-302
Angular grid pruning method      GridPruning ... 3 (G Style)
Weight generation scheme         WeightScheme... Becke
Basis function cutoff            BFCut       ...    1.0000e-11
Integration weight cutoff        WCut        ...    1.0000e-14
Grids for H and He will be reduced by one unit

# of grid points (after initial pruning)     ...  58788 (   0.0 sec)
# of grid points (after weights+screening)   ...  54048 (   0.0 sec)
nearest neighbour list constructed           ...    0.0 sec
Grid point re-assignment to atoms done       ...    0.0 sec
Grid point division into batches done        ...    0.2 sec
Reduced shell lists constructed in    0.3 sec

Total number of grid points                  ...    54048
Total number of batches                      ...      850
Average number of points per batch           ...       63
Average number of grid points per atom       ...     3861
Average number of shells per batch           ...    46.41 (70.31%)
Average number of basis functions per batch  ...    77.76 (73.36%)
Average number of large shells per batch     ...    38.06 (82.01%)
Average number of large basis fcns per batch ...    63.00 (81.02%)
Maximum spatial batch extension              ...  17.00, 15.20, 18.89 au
Average spatial batch extension              ...   0.68,  0.69,  0.72 au

Final grid set up in    0.3 sec
Final integration                            ... done (   0.2 sec)
Change in XC energy                          ...    -0.000178071
Integrated number of electrons               ...    33.999742944
Previous integrated no of electrons          ...    34.002258522

----------------
TOTAL SCF ENERGY
----------------

Total Energy       :         -158.32270953 Eh           -4308.17995 eV

Components:
Nuclear Repulsion  :          133.11463212 Eh            3622.23329 eV
Electronic Energy  :         -291.43734166 Eh           -7930.41324 eV
One Electron Energy:         -474.82225443 Eh          -12920.57041 eV
Two Electron Energy:          183.38491278 Eh            4990.15717 eV

Virial components:
Potential Energy   :         -315.98640460 Eh           -8598.42720 eV
Kinetic Energy     :          157.66369507 Eh            4290.24725 eV
Virial Ratio       :            2.00417987


DFT components:
N(Alpha)           :       16.999871471923 electrons
N(Beta)            :       16.999871471923 electrons
N(Total)           :       33.999742943845 electrons
E(XC)              :      -25.332311356302 Eh       
DFET-embed. en.    :        0.000000000000 Eh       

---------------
SCF CONVERGENCE
---------------

  Last Energy change         ...    1.7739e-09  Tolerance :   1.0000e-08
  Last MAX-Density change    ...    1.2082e-07  Tolerance :   1.0000e-07
  Last RMS-Density change    ...    7.0461e-09  Tolerance :   5.0000e-09
  Last DIIS Error            ...    3.1697e-07  Tolerance :   5.0000e-07

             **** THE GBW FILE WAS UPDATED (01_B97-3c.gbw) ****
             **** DENSITY FILE WAS UPDATED (01_B97-3c.scfp) ****
             **** ENERGY FILE WAS UPDATED (01_B97-3c.en.tmp) ****
             **** THE GBW FILE WAS UPDATED (01_B97-3c.gbw) ****
             **** DENSITY FILE WAS UPDATED (01_B97-3c.scfp) ****
----------------
ORBITAL ENERGIES
----------------

  NO   OCC          E(Eh)            E(eV) 
   0   2.0000      -9.880815      -268.8707 
   1   2.0000      -9.880706      -268.8677 
   2   2.0000      -9.873814      -268.6801 
   3   2.0000      -9.873813      -268.6801 
   4   2.0000      -0.724199       -19.7065 
   5   2.0000      -0.652677       -17.7602 
   6   2.0000      -0.578792       -15.7497 
   7   2.0000      -0.509303       -13.8588 
   8   2.0000      -0.409335       -11.1386 
   9   2.0000      -0.407201       -11.0805 
  10   2.0000      -0.370422       -10.0797 
  11   2.0000      -0.340153        -9.2560 
  12   2.0000      -0.337211        -9.1760 
  13   2.0000      -0.316541        -8.6135 
  14   2.0000      -0.283616        -7.7176 
  15   2.0000      -0.281963        -7.6726 
  16   2.0000      -0.281567        -7.6618 
  17   0.0000       0.029937         0.8146 
  18   0.0000       0.061344         1.6692 
  19   0.0000       0.067318         1.8318 
  20   0.0000       0.073433         1.9982 
  21   0.0000       0.094893         2.5822 
  22   0.0000       0.102330         2.7845 
  23   0.0000       0.112215         3.0535 
  24   0.0000       0.120736         3.2854 
  25   0.0000       0.126198         3.4340 
  26   0.0000       0.131498         3.5782 
  27   0.0000       0.174065         4.7365 
  28   0.0000       0.174783         4.7561 
  29   0.0000       0.191344         5.2067 
  30   0.0000       0.208778         5.6811 
  31   0.0000       0.215551         5.8654 
  32   0.0000       0.220765         6.0073 
  33   0.0000       0.242260         6.5922 
  34   0.0000       0.259716         7.0672 
  35   0.0000       0.265803         7.2329 
  36   0.0000       0.292421         7.9572 
  37   0.0000       0.374246        10.1837 
  38   0.0000       0.379795        10.3348 
  39   0.0000       0.386301        10.5118 
  40   0.0000       0.401606        10.9282 
  41   0.0000       0.404102        10.9962 
  42   0.0000       0.410570        11.1722 
  43   0.0000       0.414072        11.2675 
  44   0.0000       0.420977        11.4554 
  45   0.0000       0.426992        11.6190 
  46   0.0000       0.443548        12.0695 
  47   0.0000       0.446876        12.1601 
  48   0.0000       0.463432        12.6106 
  49   0.0000       0.482402        13.1268 
  50   0.0000       0.486747        13.2450 
  51   0.0000       0.491918        13.3858 
  52   0.0000       0.555167        15.1069 
  53   0.0000       0.572248        15.5717 
  54   0.0000       0.631793        17.1920 
  55   0.0000       0.652941        17.7674 
  56   0.0000       1.241002        33.7694 
  57   0.0000       1.269472        34.5441 
  58   0.0000       1.309528        35.6341 
  59   0.0000       1.342077        36.5198 
  60   0.0000       1.369528        37.2667 
  61   0.0000       1.370418        37.2910 
  62   0.0000       1.403755        38.1981 
  63   0.0000       1.422644        38.7121 
  64   0.0000       1.425249        38.7830 
  65   0.0000       1.500542        40.8318 
  66   0.0000       1.510866        41.1128 
  67   0.0000       1.527059        41.5534 
  68   0.0000       1.528335        41.5881 
  69   0.0000       1.562791        42.5257 
  70   0.0000       1.581108        43.0241 
  71   0.0000       1.586737        43.1773 
  72   0.0000       1.634674        44.4817 
  73   0.0000       1.640714        44.6461 
  74   0.0000       1.716726        46.7145 
  75   0.0000       1.742817        47.4245 
  76   0.0000       1.759156        47.8691 
  77   0.0000       1.772617        48.2354 
  78   0.0000       1.787964        48.6530 
  79   0.0000       1.795084        48.8467 
  80   0.0000       1.811572        49.2954 
  81   0.0000       1.850202        50.3466 
  82   0.0000       1.890502        51.4432 
  83   0.0000       1.914242        52.0892 
  84   0.0000       1.975021        53.7431 
  85   0.0000       2.071951        56.3806 
  86   0.0000       2.093580        56.9692 
  87   0.0000       2.231264        60.7158 
  88   0.0000       2.252489        61.2933 
  89   0.0000       2.314333        62.9762 
  90   0.0000       2.361419        64.2575 
  91   0.0000       2.405975        65.4699 
  92   0.0000       2.501599        68.0720 
  93   0.0000       2.660527        72.3966 
  94   0.0000       2.696489        73.3752 
  95   0.0000       2.706810        73.6561 
  96   0.0000       2.741469        74.5992 
  97   0.0000       2.756577        75.0103 
  98   0.0000       2.788274        75.8728 
  99   0.0000       2.999606        81.6234 
 100   0.0000       3.130369        85.1817 
 101   0.0000       3.131020        85.1994 
 102   0.0000      21.507559       585.2504 
 103   0.0000      21.633498       588.6774 
 104   0.0000      21.796369       593.1093 
 105   0.0000      21.857583       594.7751 

                    ********************************
                    * MULLIKEN POPULATION ANALYSIS *
                    ********************************

-----------------------
MULLIKEN ATOMIC CHARGES
-----------------------
   0 C :   -0.524093
   1 H :    0.154860
   2 H :    0.169114
   3 H :    0.169349
   4 C :   -0.280004
   5 H :    0.147691
   6 H :    0.163084
   7 C :   -0.280004
   8 H :    0.147691
   9 H :    0.163084
  10 C :   -0.524093
  11 H :    0.154860
  12 H :    0.169349
  13 H :    0.169114
Sum of atomic charges:   -0.0000000

--------------------------------
MULLIKEN REDUCED ORBITAL CHARGES
--------------------------------
  0 C s       :     3.262999  s :     3.262999
      pz      :     1.025400  p :     3.223788
      px      :     1.120878
      py      :     1.077510
      dz2     :     0.011142  d :     0.037306
      dxz     :     0.001741
      dyz     :     0.009287
      dx2y2   :     0.002711
      dxy     :     0.012425
  1 H s       :     0.845140  s :     0.845140
  2 H s       :     0.830886  s :     0.830886
  3 H s       :     0.830651  s :     0.830651
  4 C s       :     3.185253  s :     3.185253
      pz      :     1.020103  p :     3.050135
      px      :     1.020455
      py      :     1.009577
      dz2     :     0.010728  d :     0.044616
      dxz     :     0.002734
      dyz     :     0.012528
      dx2y2   :     0.006231
      dxy     :     0.012395
  5 H s       :     0.852309  s :     0.852309
  6 H s       :     0.836916  s :     0.836916
  7 C s       :     3.185253  s :     3.185253
      pz      :     1.020103  p :     3.050135
      px      :     1.020455
      py      :     1.009577
      dz2     :     0.010728  d :     0.044616
      dxz     :     0.002734
      dyz     :     0.012528
      dx2y2   :     0.006231
      dxy     :     0.012395
  8 H s       :     0.852309  s :     0.852309
  9 H s       :     0.836916  s :     0.836916
 10 C s       :     3.262999  s :     3.262999
      pz      :     1.025400  p :     3.223788
      px      :     1.120878
      py      :     1.077510
      dz2     :     0.011142  d :     0.037306
      dxz     :     0.001741
      dyz     :     0.009287
      dx2y2   :     0.002711
      dxy     :     0.012425
 11 H s       :     0.845140  s :     0.845140
 12 H s       :     0.830651  s :     0.830651
 13 H s       :     0.830886  s :     0.830886


                     *******************************
                     * LOEWDIN POPULATION ANALYSIS *
                     *******************************

----------------------
LOEWDIN ATOMIC CHARGES
----------------------
   0 C :   -0.434942
   1 H :    0.150362
   2 H :    0.150181
   3 H :    0.151249
   4 C :   -0.314474
   5 H :    0.148146
   6 H :    0.149478
   7 C :   -0.314474
   8 H :    0.148146
   9 H :    0.149478
  10 C :   -0.434942
  11 H :    0.150362
  12 H :    0.151249
  13 H :    0.150181

-------------------------------
LOEWDIN REDUCED ORBITAL CHARGES
-------------------------------
  0 C s       :     2.984854  s :     2.984854
      pz      :     1.118735  p :     3.388559
      px      :     1.148024
      py      :     1.121800
      dz2     :     0.018401  d :     0.061529
      dxz     :     0.003038
      dyz     :     0.016510
      dx2y2   :     0.004421
      dxy     :     0.019159
  1 H s       :     0.849638  s :     0.849638
  2 H s       :     0.849819  s :     0.849819
  3 H s       :     0.848751  s :     0.848751
  4 C s       :     2.940150  s :     2.940150
      pz      :     1.100164  p :     3.294477
      px      :     1.102557
      py      :     1.091756
      dz2     :     0.018668  d :     0.079847
      dxz     :     0.004996
      dyz     :     0.022767
      dx2y2   :     0.011038
      dxy     :     0.022377
  5 H s       :     0.851854  s :     0.851854
  6 H s       :     0.850522  s :     0.850522
  7 C s       :     2.940150  s :     2.940150
      pz      :     1.100164  p :     3.294477
      px      :     1.102557
      py      :     1.091756
      dz2     :     0.018668  d :     0.079847
      dxz     :     0.004996
      dyz     :     0.022767
      dx2y2   :     0.011038
      dxy     :     0.022377
  8 H s       :     0.851854  s :     0.851854
  9 H s       :     0.850522  s :     0.850522
 10 C s       :     2.984854  s :     2.984854
      pz      :     1.118735  p :     3.388559
      px      :     1.148024
      py      :     1.121800
      dz2     :     0.018401  d :     0.061529
      dxz     :     0.003038
      dyz     :     0.016510
      dx2y2   :     0.004421
      dxy     :     0.019159
 11 H s       :     0.849638  s :     0.849638
 12 H s       :     0.848751  s :     0.848751
 13 H s       :     0.849819  s :     0.849819


                      *****************************
                      * MAYER POPULATION ANALYSIS *
                      *****************************

  NA   - Mulliken gross atomic population
  ZA   - Total nuclear charge
  QA   - Mulliken gross atomic charge
  VA   - Mayer's total valence
  BVA  - Mayer's bonded valence
  FA   - Mayer's free valence

  ATOM       NA         ZA         QA         VA         BVA        FA
  0 C      6.5241     6.0000    -0.5241     3.7871     3.7871     0.0000
  1 H      0.8451     1.0000     0.1549     0.9491     0.9491     0.0000
  2 H      0.8309     1.0000     0.1691     0.9445     0.9445     0.0000
  3 H      0.8307     1.0000     0.1693     0.9447     0.9447     0.0000
  4 C      6.2800     6.0000    -0.2800     3.6779     3.6779     0.0000
  5 H      0.8523     1.0000     0.1477     0.9513     0.9513     0.0000
  6 H      0.8369     1.0000     0.1631     0.9403     0.9403     0.0000
  7 C      6.2800     6.0000    -0.2800     3.6779     3.6779     0.0000
  8 H      0.8523     1.0000     0.1477     0.9513     0.9513     0.0000
  9 H      0.8369     1.0000     0.1631     0.9403     0.9403     0.0000
 10 C      6.5241     6.0000    -0.5241     3.7871     3.7871     0.0000
 11 H      0.8451     1.0000     0.1549     0.9491     0.9491     0.0000
 12 H      0.8307     1.0000     0.1693     0.9447     0.9447     0.0000
 13 H      0.8309     1.0000     0.1691     0.9445     0.9445     0.0000

  Mayer bond orders larger than 0.100000
B(  0-C ,  1-H ) :   0.9587 B(  0-C ,  2-H ) :   0.9718 B(  0-C ,  3-H ) :   0.9586 
B(  0-C ,  4-C ) :   0.9474 B(  4-C ,  5-H ) :   0.9626 B(  4-C ,  6-H ) :   0.9569 
B(  4-C ,  7-C ) :   0.9430 B(  7-C ,  8-H ) :   0.9626 B(  7-C ,  9-H ) :   0.9569 
B(  7-C , 10-C ) :   0.9474 B( 10-C , 11-H ) :   0.9587 B( 10-C , 12-H ) :   0.9586 
B( 10-C , 13-H ) :   0.9718 

-------
TIMINGS
-------

Total SCF time: 0 days 0 hours 0 min 1 sec 

Total time                  ....       1.208 sec
Sum of individual times     ....       1.030 sec  ( 85.2%)

Fock matrix formation       ....       0.573 sec  ( 47.4%)
  Split-RI-J                ....       0.184 sec  ( 32.1% of F)
  XC integration            ....       0.315 sec  ( 55.0% of F)
    Basis function eval.    ....       0.069 sec  ( 21.9% of XC)
    Density eval.           ....       0.075 sec  ( 23.8% of XC)
    XC-Functional eval.     ....       0.071 sec  ( 22.5% of XC)
    XC-Potential eval.      ....       0.054 sec  ( 17.1% of XC)
Diagonalization             ....       0.008 sec  (  0.7%)
Density matrix formation    ....       0.000 sec  (  0.0%)
Population analysis         ....       0.013 sec  (  1.1%)
Initial guess               ....       0.009 sec  (  0.7%)
Orbital Transformation      ....       0.000 sec  (  0.0%)
Orbital Orthonormalization  ....       0.004 sec  (  0.3%)
DIIS solution               ....       0.002 sec  (  0.1%)
Grid generation             ....       0.425 sec  ( 35.1%)


-------------------------------------------------------------------------------
                          DFT DISPERSION CORRECTION                            
                                                                               
                              DFTD3 V3.1  Rev 1                                
                          USING Becke-Johnson damping                          
-------------------------------------------------------------------------------
The B97-3c composite method is recognized
Using three-body term ABC
Active option DFTDOPT                   ...         4   

molecular C6(AA) [au] = 1198.956467 


            DFT-D V3
 parameters
 s6 scaling factor         :     1.0000 
 a1 scaling factor         :     0.3700 
 s8 scaling factor         :     1.5000 
 a2 scaling factor         :     4.1000 
 Damping factor alpha9(ATM):    16.0000 
 ad hoc parameters k1-k3   :    16.0000     1.3333    -4.0000 

 Edisp/kcal,au: -12.929604767333  -0.020604634547 
 E6   /kcal   :  -6.923647354 
 E8   /kcal   :  -6.019530339 
 E6(ABC)      :   0.013572926 
 % E8         :  46.556182094 
 % E6(ABC)    :  -0.104975566 

-------------------------   ----------------
Dispersion correction           -0.020604635
-------------------------   ----------------

------------------   -----------------
SRB correction            -0.031283932
------------------   -----------------

-------------------------   --------------------
FINAL SINGLE POINT ENERGY      -158.374598097121
-------------------------   --------------------


                            ***************************************
                            *     ORCA property calculations      *
                            ***************************************

                                    ---------------------
                                    Active property flags
                                    ---------------------
   (+) Dipole Moment


------------------------------------------------------------------------------
                       ORCA ELECTRIC PROPERTIES CALCULATION
------------------------------------------------------------------------------

Dipole Moment Calculation                       ... on
Quadrupole Moment Calculation                   ... off
Polarizability Calculation                      ... off
GBWName                                         ... 01_B97-3c.gbw
Electron density file                           ... 01_B97-3c.scfp
The origin for moment calculation is the CENTER OF MASS  = (-0.000000, -0.000000  0.117667)

-------------
DIPOLE MOMENT
-------------
                                X             Y             Z
Electronic contribution:      0.00000       0.00000       0.93030
Nuclear contribution   :     -0.00000      -0.00000      -0.89277
                        -----------------------------------------
Total Dipole Moment    :      0.00000       0.00000       0.03754
                        -----------------------------------------
Magnitude (a.u.)       :      0.03754
Magnitude (Debye)      :      0.09541



--------------------
Rotational spectrum 
--------------------
 
Rotational constants in cm-1:     0.440728     0.162187     0.137484 
Rotational constants in MHz : 13212.687709  4862.244726  4121.676340 

 Dipole components along the rotational axes: 
x,y,z [a.u.] :     0.000000     0.037537    -0.000000 
x,y,z [Debye]:     0.000000     0.095412    -0.000000 

 

Timings for individual modules:

Sum of individual times         ...        5.600 sec (=   0.093 min)
GTO integral calculation        ...        2.750 sec (=   0.046 min)  49.1 %
SCF iterations                  ...        2.849 sec (=   0.047 min)  50.9 %
                             ****ORCA TERMINATED NORMALLY****
TOTAL RUN TIME: 0 days 0 hours 0 minutes 7 seconds 230 msec
