
                                 *****************
                                 * O   R   C   A *
                                 *****************

           --- An Ab Initio, DFT and Semiempirical electronic structure package ---

                  #######################################################
                  #                        -***-                        #
                  #          Department of theory and spectroscopy      #
                  #               Directorship: Frank Neese             #
                  #        Max Planck Institute fuer Kohlenforschung    #
                  #                Kaiser Wilhelm Platz 1               #
                  #                 D-45470 Muelheim/Ruhr               #
                  #                      Germany                        #
                  #                                                     #
                  #                  All rights reserved                #
                  #                        -***-                        #
                  #######################################################


                         Program Version 4.2.1 -  RELEASE  -


 With contributions from (in alphabetic order):
   Daniel Aravena         : Magnetic Suceptibility
   Michael Atanasov       : Ab Initio Ligand Field Theory (pilot matlab implementation)
   Alexander A. Auer      : GIAO ZORA, VPT2
   Ute Becker             : Parallelization
   Giovanni Bistoni       : ED, misc. LED, open-shell LED, HFLD
   Martin Brehm           : Molecular dynamics
   Dmytro Bykov           : SCF Hessian
   Vijay G. Chilkuri      : MRCI spin determinant printing, contributions to CSF-ICE
   Dipayan Datta          : RHF DLPNO-CCSD density
   Achintya Kumar Dutta   : EOM-CC, STEOM-CC
   Dmitry Ganyushin       : Spin-Orbit,Spin-Spin,Magnetic field MRCI
   Miquel Garcia          : C-PCM Hessian, Gaussian charge scheme
   Yang Guo               : DLPNO-NEVPT2, CIM, IAO-localization
   Andreas Hansen         : Spin unrestricted coupled pair/coupled cluster methods
   Benjamin Helmich-Paris : CASSCF linear response (MC-RPA)
   Lee Huntington         : MR-EOM, pCC
   Robert Izsak           : Overlap fitted RIJCOSX, COSX-SCS-MP3, EOM
   Christian Kollmar      : KDIIS, OOCD, Brueckner-CCSD(T), CCSD density
   Simone Kossmann        : Meta GGA functionals, TD-DFT gradient, OOMP2, MP2 Hessian
   Martin Krupicka        : AUTO-CI
   Lucas Lang             : DCDCAS
   Dagmar Lenk            : GEPOL surface, SMD
   Dimitrios Liakos       : Extrapolation schemes; Compound Job, initial MDCI parallelization
   Dimitrios Manganas     : Further ROCIS development; embedding schemes
   Dimitrios Pantazis     : SARC Basis sets
   Taras Petrenko         : DFT Hessian,TD-DFT gradient, ASA, ECA, R-Raman, ABS, FL, XAS/XES, NRVS
   Peter Pinski           : DLPNO-MP2, DLPNO-MP2 Gradient
   Christoph Reimann      : Effective Core Potentials
   Marius Retegan         : Local ZFS, SOC
   Christoph Riplinger    : Optimizer, TS searches, QM/MM, DLPNO-CCSD(T), (RO)-DLPNO pert. Triples
   Tobias Risthaus        : Range-separated hybrids, TD-DFT gradient, RPA, STAB
   Michael Roemelt        : Original ROCIS implementation
   Masaaki Saitow         : Open-shell DLPNO-CCSD energy and density
   Barbara Sandhoefer     : DKH picture change effects
   Avijit Sen             : IP-ROCIS
   Kantharuban Sivalingam : CASSCF convergence, NEVPT2, FIC-MRCI
   Bernardo de Souza      : ESD, SOC TD-DFT
   Georgi Stoychev        : AutoAux, RI-MP2 NMR
   Willem Van den Heuvel  : Paramagnetic NMR
   Boris Wezisla          : Elementary symmetry handling
   Frank Wennmohs         : Technical directorship


 We gratefully acknowledge several colleagues who have allowed us to
 interface, adapt or use parts of their codes:
   Stefan Grimme, W. Hujo, H. Kruse,             : VdW corrections, initial TS optimization,
                  C. Bannwarth                     DFT functionals, gCP, sTDA/sTD-DF
   Ed Valeev, F. Pavosevic, A. Kumar             : LibInt (2-el integral package), F12 methods
   Garnet Chan, S. Sharma, J. Yang, R. Olivares  : DMRG
   Ulf Ekstrom                                   : XCFun DFT Library
   Mihaly Kallay                                 : mrcc  (arbitrary order and MRCC methods)
   Andreas Klamt, Michael Diedenhofen            : otool_cosmo (COSMO solvation model)
   Jiri Pittner, Ondrej Demel                    : Mk-CCSD
   Frank Weinhold                                : gennbo (NPA and NBO analysis)
   Christopher J. Cramer and Donald G. Truhlar   : smd solvation model
   Lars Goerigk                                  : TD-DFT with DH, B97 family of functionals
   V. Asgeirsson, H. Jonsson                     : NEB implementation
   FAccTs GmbH                                   : IRC, NEB, NEB-TS, Multilevel, MM, QM/MM, CI optimization
   S Lehtola, MJT Oliveira, MAL Marques          : LibXC Library


 Your calculation uses the libint2 library for the computation of 2-el integrals
 For citations please refer to: http://libint.valeyev.net

 Your ORCA version has been built with support for libXC version: 4.2.3
 For citations please refer to: https://tddft.org/programs/libxc/

 This ORCA versions uses:
   CBLAS   interface :  Fast vector & matrix operations
   LAPACKE interface :  Fast linear algebra routines
   SCALAPACK package :  Parallel linear algebra routines




***************************************
The coordinates will be read from file: struc.xyz
***************************************


Your calculation utilizes the atom-pairwise dispersion correction
with the Becke-Johnson damping scheme (D3BJ)
Cite in your paper:
S.Grimme, S.Ehrlich, L.Goerigk, J Comput Chem, (2011), 32, 1456–1465 
S.Grimme, J.Antony, S.Ehrlich and H.Krieg, J.Chem.Phys., 132, (2010), 154104 
   

----- Orbital basis set information -----
Your calculation utilizes the basis: def2-QZVPP
   F. Weigend and R. Ahlrichs, Phys. Chem. Chem. Phys. 7, 3297 (2005).

----- AuxJ basis set information -----
Your calculation utilizes the auxiliary basis: def2/J
   F. Weigend, Phys. Chem. Chem. Phys. 8, 1057 (2006).

----- AuxC basis set information -----
Your calculation utilizes the auxiliary basis: def2-QZVPP/C
  H-La, Hf-Rn : A. Hellweg, C. Hattig, S. Hofener and W. Klopper, Theor. Chem. Acc. 117, 587 (2007).
        Ce-Lu : J. Chmela and M. E. Harding, Mol. Phys. (2018).

================================================================================
                                        WARNINGS
                       Please study these warnings very carefully!
================================================================================


WARNING: No MP2 level density has been requested!
         To caclulate MP2 level properties use
         %mp2 Density relaxed end
         or
         %mp2 Density unrelaxed end
         Otherwise for double-hybrid DFT only the energy is correct!

WARNING: There are different parametrizations of Gershom Martin's DSD-DFs
         for use with and without D3(BJ)!
         You are using the D3(BJ) parametrized version,
         consistent with the GMTKN55 benchmark (L. Goerigk et al., PCCP 2017, 19, 32184)

WARNING: The frozen-core approximation is turned on by default for 
         the MP2 part of double-hybrid DFT.

INFO   : the flag for use of LIBINT has been found!

================================================================================
                                       INPUT FILE
================================================================================
NAME = 05_DLPNO-DSD-BLYP-Expen.inp
|  1> !TightPNO DLPNO-DSD-BLYP D3 RIJCOSX def2-QZVPP def2/J def2-QZVPP/C grid5 gridx7 TightSCF NOSOSCF
|  2> %maxcore 5500 #memory in MB
|  3> %pal
|  4>     nprocs 4
|  5> end
|  6> %scf
|  7>    Guess MORead
|  8>    MOInp "02_DLPNO-DSD-BLYP.gbw"
|  9> end
| 10> * xyzfile -1 1 struc.xyz
| 11> 
| 12>                          ****END OF INPUT****
================================================================================

                       ****************************
                       * Single Point Calculation *
                       ****************************

---------------------------------
CARTESIAN COORDINATES (ANGSTROEM)
---------------------------------
  H     -4.912587   -1.981645    0.534995
  O     -4.198351   -1.470500    0.122066
  C     -4.133261   -1.843263   -1.262377
  H     -5.094820   -1.665690   -1.760008
  H     -3.869753   -2.903941   -1.375136
  C     -3.056086   -1.026869   -1.937438
  H     -2.990149   -1.345649   -2.985633
  O     -3.390903    0.386671   -1.907848
  C     -2.232957    1.171297   -1.709257
  H     -2.148152    1.931153   -2.489140
  N     -2.375603    1.910192   -0.412697
  C     -3.393285    1.645515    0.469760
  H     -4.026548    0.811735    0.191014
  C     -3.578905    2.366506    1.603892
  H     -4.391879    2.133985    2.278532
  C     -2.695057    3.456453    1.924878
  O     -2.761972    4.205283    2.904890
  N     -1.652899    3.619255    0.993792
  H     -0.992861    4.372163    1.170551
  C     -1.433317    2.901143   -0.163379
  O     -0.513809    3.149087   -0.943837
  C     -1.662665   -1.113913   -1.309602
  H     -1.717508   -1.198997   -0.220814
  C     -1.030086    0.215376   -1.745174
  H     -0.204623    0.548361   -1.111008
  O     -0.608269    0.130260   -3.111104
  H     -0.482432   -0.821033   -3.297227
  O     -0.986168   -2.247824   -1.861480
  P      0.031863   -3.161535   -0.925713
  O      0.352019   -4.342949   -1.787766
  O     -0.528232   -3.277952    0.457190
  O      1.347945   -2.204927   -0.753649
  C      2.106846   -1.777877   -1.901370
  H      1.467913   -1.209161   -2.583066
  H      2.514822   -2.646732   -2.430508
  C      3.234149   -0.889302   -1.412436
  H      3.796595   -0.526592   -2.278707
  O      2.663837    0.268858   -0.725773
  C      3.155551    0.341327    0.609535
  H      3.928781    1.105980    0.712447
  N      2.061381    0.753103    1.495934
  C      0.923085   -0.018260    1.564204
  H      0.919221   -0.875147    0.897486
  C     -0.113723    0.271471    2.384762
  H     -0.990484   -0.361189    2.420180
  C     -0.045641    1.426997    3.245920
  O     -0.901416    1.796376    4.053746
  N      1.133550    2.175383    3.086488
  H      1.226497    3.006692    3.664960
  C      2.204381    1.916617    2.254510
  O      3.199253    2.637173    2.215863
  C      4.195983   -1.556147   -0.418590
  H      4.178200   -2.645158   -0.492688
  C      3.705435   -1.060916    0.946926
  H      2.891187   -1.701237    1.294875
  O      4.713272   -1.052354    1.940837
  H      5.547919   -0.897744    1.450763
  O      5.541318   -1.066329   -0.581846
  H      6.073398   -1.763577   -0.995724

----------------------------
CARTESIAN COORDINATES (A.U.)
----------------------------
  NO LB      ZA    FRAG     MASS         X           Y           Z
   0 H     1.0000    0     1.008   -9.283443   -3.744767    1.010994
   1 O     8.0000    0    15.999   -7.933734   -2.778842    0.230672
   2 C     6.0000    0    12.011   -7.810732   -3.483263   -2.385547
   3 H     1.0000    0     1.008   -9.627815   -3.147698   -3.325933
   4 H     1.0000    0     1.008   -7.312774   -5.487653   -2.598630
   5 C     6.0000    0    12.011   -5.775166   -1.940501   -3.661227
   6 H     1.0000    0     1.008   -5.650562   -2.542909   -5.642028
   7 O     8.0000    0    15.999   -6.407877    0.730703   -3.605310
   8 C     6.0000    0    12.011   -4.219677    2.213431   -3.230027
   9 H     1.0000    0     1.008   -4.059420    3.649350   -4.703794
  10 N     7.0000    0    14.007   -4.489238    3.609739   -0.779885
  11 C     6.0000    0    12.011   -6.412379    3.109572    0.887718
  12 H     1.0000    0     1.008   -7.609073    1.533956    0.360963
  13 C     6.0000    0    12.011   -6.763151    4.472048    3.030916
  14 H     1.0000    0     1.008   -8.299449    4.032648    4.305802
  15 C     6.0000    0    12.011   -5.092921    6.531750    3.637492
  16 O     8.0000    0    15.999   -5.219370    7.946834    5.489447
  17 N     7.0000    0    14.007   -3.123526    6.839401    1.877995
  18 H     1.0000    0     1.008   -1.876236    8.262192    2.212021
  19 C     6.0000    0    12.011   -2.708576    5.482365   -0.308742
  20 O     8.0000    0    15.999   -0.970959    5.950912   -1.783594
  21 C     6.0000    0    12.011   -3.141982   -2.104991   -2.474789
  22 H     1.0000    0     1.008   -3.245620   -2.265777   -0.417279
  23 C     6.0000    0    12.011   -1.946580    0.407002   -3.297901
  24 H     1.0000    0     1.008   -0.386682    1.036252   -2.099501
  25 O     8.0000    0    15.999   -1.149462    0.246156   -5.879135
  26 H     1.0000    0     1.008   -0.911665   -1.551527   -6.230857
  27 O     8.0000    0    15.999   -1.863587   -4.247772   -3.517688
  28 P    15.0000    0    30.974    0.060213   -5.974435   -1.749345
  29 O     8.0000    0    15.999    0.665220   -8.206984   -3.378388
  30 O     8.0000    0    15.999   -0.998213   -6.194432    0.863964
  31 O     8.0000    0    15.999    2.547246   -4.166708   -1.424190
  32 C     6.0000    0    12.011    3.981361   -3.359700   -3.593068
  33 H     1.0000    0     1.008    2.773955   -2.284984   -4.881288
  34 H     1.0000    0     1.008    4.752324   -5.001599   -4.592995
  35 C     6.0000    0    12.011    6.111657   -1.680537   -2.669117
  36 H     1.0000    0     1.008    7.174525   -0.995114   -4.306132
  37 O     8.0000    0    15.999    5.033923    0.508068   -1.371512
  38 C     6.0000    0    12.011    5.963127    0.645014    1.151854
  39 H     1.0000    0     1.008    7.424320    2.090000    1.346329
  40 N     7.0000    0    14.007    3.895446    1.423158    2.826906
  41 C     6.0000    0    12.011    1.744378   -0.034507    2.955917
  42 H     1.0000    0     1.008    1.737076   -1.653788    1.696003
  43 C     6.0000    0    12.011   -0.214906    0.513005    4.506547
  44 H     1.0000    0     1.008   -1.871744   -0.682548    4.573477
  45 C     6.0000    0    12.011   -0.086249    2.696633    6.133899
  46 O     8.0000    0    15.999   -1.703429    3.394658    7.660470
  47 N     7.0000    0    14.007    2.142099    4.110879    5.832618
  48 H     1.0000    0     1.008    2.317744    5.681824    6.925770
  49 C     6.0000    0    12.011    4.165676    3.621882    4.260407
  50 O     8.0000    0    15.999    6.045711    4.983535    4.187374
  51 C     6.0000    0    12.011    7.929259   -2.940692   -0.791020
  52 H     1.0000    0     1.008    7.895653   -4.998625   -0.931046
  53 C     6.0000    0    12.011    7.002257   -2.004842    1.789432
  54 H     1.0000    0     1.008    5.463552   -3.214871    2.446960
  55 O     8.0000    0    15.999    8.906794   -1.988661    3.667651
  56 H     1.0000    0     1.008   10.484048   -1.696491    2.741545
  57 O     8.0000    0    15.999   10.471573   -2.015071   -1.099529
  58 H     1.0000    0     1.008   11.477059   -3.332677   -1.881645

--------------------------------
INTERNAL COORDINATES (ANGSTROEM)
--------------------------------
 H      0   0   0     0.000000000000     0.00000000     0.00000000
 O      1   0   0     0.970521371934     0.00000000     0.00000000
 C      2   1   0     1.435225814889   107.87870833     0.00000000
 H      3   2   1     1.097162218583   110.83826102    57.64797690
 H      3   2   1     1.098720918940   111.13733433   296.70918719
 C      3   2   1     1.510798962643   108.84449929   178.20283776
 H      6   3   2     1.097579655348   108.21637347   177.96637551
 O      6   3   2     1.452953344007   110.62903446   296.59895520
 C      8   6   3     1.412768301113   110.75085391   142.77390931
 H      9   8   6     1.092149812335   110.46705791   126.45296421
 N      9   8   6     1.499126152251   108.50113098   242.70768754
 C     11   9   8     1.372757350904   122.10571442     9.18259494
 H     12  11   9     1.083471678648   114.60034223     4.83832670
 C     12  11   9     1.356664088666   122.43600142   184.30035832
 H     14  12  11     1.081726554866   120.66133945   179.88845360
 C     14  12  11     1.439515316746   120.31735965     0.00000000
 O     16  14  12     1.235171245894   127.06287244   178.63126150
 N     16  14  12     1.406953878431   113.25624452   357.56784223
 H     18  16  14     1.016741801776   116.83933445   180.27857066
 C     18  16  14     1.379473599076   127.79217415     2.32881782
 O     20  18  16     1.231293894932   123.07601916   177.38229590
 C      6   3   2     1.530809312031   115.78595536    55.71095651
 H     22   6   3     1.093482993101   111.53956797   324.56659824
 C     22   6   3     1.535216748787   102.09113654   205.09757845
 H     24  22   6     1.092901374686   114.22969098   157.23282989
 O     24  22   6     1.432109945098   109.90806440   281.99168937
 H     26  24  22     0.977463373484   106.10372717   336.76202885
 O     22   6   3     1.431073965349   108.49276710    86.18689427
 P     28  22   6     1.657381680525   120.62721198   215.97342264
 O     29  28  22     1.497121853607   103.96283616   171.30593017
 O     29  28  22     1.496556413396   109.55613360    37.63178240
 O     29  28  22     1.636085254814   103.36414986   286.75390020
 C     32  29  28     1.440682327754   120.88174460   299.27308006
 H     33  32  29     1.093792405074   110.05509121    59.64294130
 H     33  32  29     1.096057507749   110.22403375   299.15080954
 C     33  32  29     1.516388963639   107.96495409   178.87010114
 H     36  33  32     1.094682650625   108.72137871   182.12673545
 O     36  33  32     1.462222767711   109.00129365   299.66935880
 C     38  36  33     1.424809474049   110.22977393   122.44432702
 H     39  38  36     1.092323194071   111.60430425   102.93558633
 N     39  38  36     1.467130207715   108.85155040   219.50124518
 C     41  39  38     1.376727621700   119.29677864    58.96704466
 H     42  41  39     1.085717200457   114.49980535   357.45122931
 C     42  41  39     1.353599430142   122.91831510   178.04082974
 H     44  42  41     1.081768295002   121.02895034   180.54788181
 C     44  42  41     1.442729561331   119.81028539   359.42509363
 O     46  44  42     1.233440175180   126.72988527   181.21144420
 N     46  44  42     1.405699989654   113.47183176     2.10613082
 H     48  46  44     1.017025749270   116.57244864   179.41004071
 C     48  46  44     1.380516650393   128.26095768   358.24572780
 O     50  48  46     1.229009598939   122.47673799   181.22715949
 C     36  33  32     1.535426931712   114.82846019    59.05565007
 H     52  36  33     1.091674242404   112.27842041    22.16934136
 C     52  36  33     1.533142563034   103.63789757   260.89356506
 H     54  52  36     1.092738555028   109.43532385    84.70097397
 O     54  52  36     1.415510161726   113.54871799   205.56204080
 H     56  54  52     0.980159249571   104.84314908    29.76977417
 O     52  36  33     1.441006533165   111.33862685   146.37607841
 H     58  52  36     0.969823734675   108.43212741   252.57348835

---------------------------
INTERNAL COORDINATES (A.U.)
---------------------------
 H      0   0   0     0.000000000000     0.00000000     0.00000000
 O      1   0   0     1.834019600072     0.00000000     0.00000000
 C      2   1   0     2.712183730475   107.87870833     0.00000000
 H      3   2   1     2.073336117607   110.83826102    57.64797690
 H      3   2   1     2.076281634408   111.13733433   296.70918719
 C      3   2   1     2.854996282807   108.84449929   178.20283776
 H      6   3   2     2.074124958771   108.21637347   177.96637551
 O      6   3   2     2.745683905539   110.62903446   296.59895520
 C      8   6   3     2.669745179789   110.75085391   142.77390931
 H      9   8   6     2.063864042527   110.46705791   126.45296421
 N      9   8   6     2.832937867953   108.50113098   242.70768754
 C     11   9   8     2.594135441536   122.10571442     9.18259494
 H     12  11   9     2.047464746506   114.60034223     4.83832670
 C     12  11   9     2.563723583304   122.43600142   184.30035832
 H     14  12  11     2.044166940488   120.66133945   179.88845360
 C     14  12  11     2.720289714234   120.31735965     0.00000000
 O     16  14  12     2.334135383234   127.06287244   178.63126150
 N     16  14  12     2.658757513292   113.25624452   357.56784223
 H     18  16  14     1.921363554266   116.83933445   180.27857066
 C     18  16  14     2.606827311228   127.79217415     2.32881782
 O     20  18  16     2.326808251790   123.07601916   177.38229590
 C      6   3   2     2.892810362995   115.78595536    55.71095651
 H     22   6   3     2.066383389061   111.53956797   324.56659824
 C     22   6   3     2.901139211416   102.09113654   205.09757845
 H     24  22   6     2.065284289543   114.22969098   157.23282989
 O     24  22   6     2.706295589900   109.90806440   281.99168937
 H     26  24  22     1.847138081823   106.10372717   336.76202885
 O     22   6   3     2.704337871895   108.49276710    86.18689427
 P     28  22   6     3.131997475570   120.62721198   215.97342264
 O     29  28  22     2.829150292425   103.96283616   171.30593017
 O     29  28  22     2.828081765282   109.55613360    37.63178240
 O     29  28  22     3.091753063345   103.36414986   286.75390020
 C     32  29  28     2.722495045436   120.88174460   299.27308006
 H     33  32  29     2.066968092954   110.05509121    59.64294130
 H     33  32  29     2.071248516675   110.22403375   299.15080954
 C     33  32  29     2.865559853778   107.96495409   178.87010114
 H     36  33  32     2.068650413236   108.72137871   182.12673545
 O     36  33  32     2.763200577758   109.00129365   299.66935880
 C     38  36  33     2.692499698969   110.22977393   122.44432702
 H     39  38  36     2.064191686525   111.60430425   102.93558633
 N     39  38  36     2.772474295385   108.85155040   219.50124518
 C     41  39  38     2.601638166017   119.29677864    58.96704466
 H     42  41  39     2.051708167752   114.49980535   357.45122931
 C     42  41  39     2.557932218001   122.91831510   178.04082974
 H     44  42  41     2.044245817913   121.02895034   180.54788181
 C     44  42  41     2.726363756227   119.81028539   359.42509363
 O     46  44  42     2.330864133666   126.72988527   181.21144420
 N     46  44  42     2.656388006901   113.47183176     2.10613082
 H     48  46  44     1.921900137267   116.57244864   179.41004071
 C     48  46  44     2.608798392562   128.26095768   358.24572780
 O     50  48  46     2.322491557954   122.47673799   181.22715949
 C     36  33  32     2.901536399583   114.82846019    59.05565007
 H     52  36  33     2.062965345599   112.27842041    22.16934136
 C     52  36  33     2.897219568393   103.63789757   260.89356506
 H     54  52  36     2.064976604980   109.43532385    84.70097397
 O     54  52  36     2.674926545444   113.54871799   205.56204080
 H     56  54  52     1.852232549319   104.84314908    29.76977417
 O     52  36  33     2.723107704874   111.33862685   146.37607841
 H     58  52  36     1.832701256712   108.43212741   252.57348835

---------------------
BASIS SET INFORMATION
---------------------
There are 5 groups of distinct atoms

 Group   1 Type H   : 7s3p2d1f contracted to 4s3p2d1f pattern {4111/111/11/1}
 Group   2 Type O   : 15s8p3d2f1g contracted to 7s4p3d2f1g pattern {8211111/5111/111/11/1}
 Group   3 Type C   : 15s8p3d2f1g contracted to 7s4p3d2f1g pattern {8211111/5111/111/11/1}
 Group   4 Type N   : 15s8p3d2f1g contracted to 7s4p3d2f1g pattern {8211111/5111/111/11/1}
 Group   5 Type P   : 20s14p4d2f1g contracted to 9s6p4d2f1g pattern {1031111111/821111/1111/11/1}

Atom   0H    basis set group =>   1
Atom   1O    basis set group =>   2
Atom   2C    basis set group =>   3
Atom   3H    basis set group =>   1
Atom   4H    basis set group =>   1
Atom   5C    basis set group =>   3
Atom   6H    basis set group =>   1
Atom   7O    basis set group =>   2
Atom   8C    basis set group =>   3
Atom   9H    basis set group =>   1
Atom  10N    basis set group =>   4
Atom  11C    basis set group =>   3
Atom  12H    basis set group =>   1
Atom  13C    basis set group =>   3
Atom  14H    basis set group =>   1
Atom  15C    basis set group =>   3
Atom  16O    basis set group =>   2
Atom  17N    basis set group =>   4
Atom  18H    basis set group =>   1
Atom  19C    basis set group =>   3
Atom  20O    basis set group =>   2
Atom  21C    basis set group =>   3
Atom  22H    basis set group =>   1
Atom  23C    basis set group =>   3
Atom  24H    basis set group =>   1
Atom  25O    basis set group =>   2
Atom  26H    basis set group =>   1
Atom  27O    basis set group =>   2
Atom  28P    basis set group =>   5
Atom  29O    basis set group =>   2
Atom  30O    basis set group =>   2
Atom  31O    basis set group =>   2
Atom  32C    basis set group =>   3
Atom  33H    basis set group =>   1
Atom  34H    basis set group =>   1
Atom  35C    basis set group =>   3
Atom  36H    basis set group =>   1
Atom  37O    basis set group =>   2
Atom  38C    basis set group =>   3
Atom  39H    basis set group =>   1
Atom  40N    basis set group =>   4
Atom  41C    basis set group =>   3
Atom  42H    basis set group =>   1
Atom  43C    basis set group =>   3
Atom  44H    basis set group =>   1
Atom  45C    basis set group =>   3
Atom  46O    basis set group =>   2
Atom  47N    basis set group =>   4
Atom  48H    basis set group =>   1
Atom  49C    basis set group =>   3
Atom  50O    basis set group =>   2
Atom  51C    basis set group =>   3
Atom  52H    basis set group =>   1
Atom  53C    basis set group =>   3
Atom  54H    basis set group =>   1
Atom  55O    basis set group =>   2
Atom  56H    basis set group =>   1
Atom  57O    basis set group =>   2
Atom  58H    basis set group =>   1
---------------------------------
AUXILIARY/J BASIS SET INFORMATION
---------------------------------
There are 5 groups of distinct atoms

 Group   1 Type H   : 5s2p1d contracted to 3s1p1d pattern {311/2/1}
 Group   2 Type O   : 12s5p4d2f1g contracted to 6s4p3d1f1g pattern {711111/2111/211/2/1}
 Group   3 Type C   : 12s5p4d2f1g contracted to 6s4p3d1f1g pattern {711111/2111/211/2/1}
 Group   4 Type N   : 12s5p4d2f1g contracted to 6s4p3d1f1g pattern {711111/2111/211/2/1}
 Group   5 Type P   : 14s5p5d2f1g contracted to 8s4p3d1f1g pattern {71111111/2111/311/2/1}

Atom   0H    basis set group =>   1
Atom   1O    basis set group =>   2
Atom   2C    basis set group =>   3
Atom   3H    basis set group =>   1
Atom   4H    basis set group =>   1
Atom   5C    basis set group =>   3
Atom   6H    basis set group =>   1
Atom   7O    basis set group =>   2
Atom   8C    basis set group =>   3
Atom   9H    basis set group =>   1
Atom  10N    basis set group =>   4
Atom  11C    basis set group =>   3
Atom  12H    basis set group =>   1
Atom  13C    basis set group =>   3
Atom  14H    basis set group =>   1
Atom  15C    basis set group =>   3
Atom  16O    basis set group =>   2
Atom  17N    basis set group =>   4
Atom  18H    basis set group =>   1
Atom  19C    basis set group =>   3
Atom  20O    basis set group =>   2
Atom  21C    basis set group =>   3
Atom  22H    basis set group =>   1
Atom  23C    basis set group =>   3
Atom  24H    basis set group =>   1
Atom  25O    basis set group =>   2
Atom  26H    basis set group =>   1
Atom  27O    basis set group =>   2
Atom  28P    basis set group =>   5
Atom  29O    basis set group =>   2
Atom  30O    basis set group =>   2
Atom  31O    basis set group =>   2
Atom  32C    basis set group =>   3
Atom  33H    basis set group =>   1
Atom  34H    basis set group =>   1
Atom  35C    basis set group =>   3
Atom  36H    basis set group =>   1
Atom  37O    basis set group =>   2
Atom  38C    basis set group =>   3
Atom  39H    basis set group =>   1
Atom  40N    basis set group =>   4
Atom  41C    basis set group =>   3
Atom  42H    basis set group =>   1
Atom  43C    basis set group =>   3
Atom  44H    basis set group =>   1
Atom  45C    basis set group =>   3
Atom  46O    basis set group =>   2
Atom  47N    basis set group =>   4
Atom  48H    basis set group =>   1
Atom  49C    basis set group =>   3
Atom  50O    basis set group =>   2
Atom  51C    basis set group =>   3
Atom  52H    basis set group =>   1
Atom  53C    basis set group =>   3
Atom  54H    basis set group =>   1
Atom  55O    basis set group =>   2
Atom  56H    basis set group =>   1
Atom  57O    basis set group =>   2
Atom  58H    basis set group =>   1
---------------------------------
AUXILIARY/C BASIS SET INFORMATION
---------------------------------
There are 5 groups of distinct atoms

 Group   1 Type H   : 6s4p3d2f1g contracted to 6s4p3d2f1g pattern {111111/1111/111/11/1}
 Group   2 Type O   : 9s8p7d5f3g1h contracted to 9s8p7d5f3g1h pattern {111111111/11111111/1111111/11111/111/1}
 Group   3 Type C   : 9s8p7d5f3g1h contracted to 9s8p7d5f3g1h pattern {111111111/11111111/1111111/11111/111/1}
 Group   4 Type N   : 9s8p7d5f3g1h contracted to 9s8p7d5f3g1h pattern {111111111/11111111/1111111/11111/111/1}
 Group   5 Type P   : 12s10p9d6f3g1h contracted to 12s10p9d6f3g1h pattern {111111111111/1111111111/111111111/111111/111/1}

Atom   0H    basis set group =>   1
Atom   1O    basis set group =>   2
Atom   2C    basis set group =>   3
Atom   3H    basis set group =>   1
Atom   4H    basis set group =>   1
Atom   5C    basis set group =>   3
Atom   6H    basis set group =>   1
Atom   7O    basis set group =>   2
Atom   8C    basis set group =>   3
Atom   9H    basis set group =>   1
Atom  10N    basis set group =>   4
Atom  11C    basis set group =>   3
Atom  12H    basis set group =>   1
Atom  13C    basis set group =>   3
Atom  14H    basis set group =>   1
Atom  15C    basis set group =>   3
Atom  16O    basis set group =>   2
Atom  17N    basis set group =>   4
Atom  18H    basis set group =>   1
Atom  19C    basis set group =>   3
Atom  20O    basis set group =>   2
Atom  21C    basis set group =>   3
Atom  22H    basis set group =>   1
Atom  23C    basis set group =>   3
Atom  24H    basis set group =>   1
Atom  25O    basis set group =>   2
Atom  26H    basis set group =>   1
Atom  27O    basis set group =>   2
Atom  28P    basis set group =>   5
Atom  29O    basis set group =>   2
Atom  30O    basis set group =>   2
Atom  31O    basis set group =>   2
Atom  32C    basis set group =>   3
Atom  33H    basis set group =>   1
Atom  34H    basis set group =>   1
Atom  35C    basis set group =>   3
Atom  36H    basis set group =>   1
Atom  37O    basis set group =>   2
Atom  38C    basis set group =>   3
Atom  39H    basis set group =>   1
Atom  40N    basis set group =>   4
Atom  41C    basis set group =>   3
Atom  42H    basis set group =>   1
Atom  43C    basis set group =>   3
Atom  44H    basis set group =>   1
Atom  45C    basis set group =>   3
Atom  46O    basis set group =>   2
Atom  47N    basis set group =>   4
Atom  48H    basis set group =>   1
Atom  49C    basis set group =>   3
Atom  50O    basis set group =>   2
Atom  51C    basis set group =>   3
Atom  52H    basis set group =>   1
Atom  53C    basis set group =>   3
Atom  54H    basis set group =>   1
Atom  55O    basis set group =>   2
Atom  56H    basis set group =>   1
Atom  57O    basis set group =>   2
Atom  58H    basis set group =>   1


           ************************************************************
           *        Program running with 4 parallel MPI-processes     *
           *              working on a common directory               *
           ************************************************************
------------------------------------------------------------------------------
                           ORCA GTO INTEGRAL CALCULATION
                           -- RI-GTO INTEGRALS CHOSEN --
------------------------------------------------------------------------------

                         BASIS SET STATISTICS AND STARTUP INFO

Gaussian basis set:
 # of primitive gaussian shells          ... 1371
 # of primitive gaussian functions       ... 3603
 # of contracted shells                  ...  854
 # of contracted basis functions         ... 2782
 Highest angular momentum                ...    4
 Maximum contraction depth               ...   10
Auxiliary gaussian basis set:
 # of primitive gaussian shells          ... 1067
 # of primitive gaussian functions       ... 2949
 # of contracted shells                  ...  667
 # of contracted aux-basis functions     ... 2057
 Highest angular momentum                ...    4
 Maximum contraction depth               ...    7
Ratio of auxiliary to basis functions    ...  0.74
Integral package used                  ... LIBINT
 One Electron integrals                  ... done
 Ordering auxiliary basis shells         ... done
 Integral threshhold             Thresh  ...  2.500e-11
 Primitive cut-off               TCut    ...  2.500e-12
 Pre-screening matrix                    ... done
 Shell pair data                         ... 
 Ordering of the shell pairs             ... done (   0.090 sec) 194165 of 365085 pairs
 Determination of significant pairs      ... done (   0.003 sec)
 Creation of shell pair data             ... done (   0.051 sec)
 Storage of shell pair data              ... done (   0.060 sec)
 Shell pair data done in (   0.204 sec)
 Computing two index integrals           ... done
 Cholesky decomposition of the V-matrix  ... done


Timings:
 Total evaluation time                   ...  26.138 sec (  0.436 min)
 One electron matrix time                ...   5.585 sec (  0.093 min) = 21.4%
 Schwartz matrix evaluation time         ...  19.676 sec (  0.328 min) = 75.3%
 Two index repulsion integral time       ...   0.222 sec (  0.004 min) =  0.9%
 Cholesky decomposition of V             ...   0.402 sec (  0.007 min) =  1.5%
 Three index repulsion integral time     ...   0.000 sec (  0.000 min) =  0.0%



           ************************************************************
           *        Program running with 4 parallel MPI-processes     *
           *              working on a common directory               *
           ************************************************************
-------------------------------------------------------------------------------
                                 ORCA SCF
-------------------------------------------------------------------------------

------------
SCF SETTINGS
------------
Hamiltonian:
 Density Functional     Method          .... DFT(GTOs)
 Exchange Functional    Exchange        .... B88
   X-Alpha parameter    XAlpha          ....  0.666667
   Becke's b parameter  XBeta           ....  0.004200
 Correlation Functional Correlation     .... LYP
 LDA part of GGA corr.  LDAOpt          .... VWN-5
 Gradients option       PostSCFGGA      .... off
 Hybrid DFT is turned on
   Fraction HF Exchange ScalHFX         ....  0.690000
   Scaling of DF-GGA-X  ScalDFX         ....  0.310000
   Scaling of DF-GGA-C  ScalDFC         ....  0.540000
   Scaling of DF-LDA-C  ScalLDAC        ....  0.540000
   Perturbative correction              ....  1.000000
   Density functional embedding theory  .... OFF
 RI-approximation to the Coulomb term is turned on
   Number of auxiliary basis functions  .... 2057
   RIJ-COSX (HFX calculated with COS-X)).... on


General Settings:
 Integral files         IntName         .... 05_DLPNO-DSD-BLYP-Expen
 Hartree-Fock type      HFTyp           .... RHF
 Total Charge           Charge          ....   -1
 Multiplicity           Mult            ....    1
 Number of Electrons    NEL             ....  286
 Basis Dimension        Dim             .... 2782
 Nuclear Repulsion      ENuc            ....   5032.5840567766 Eh

Convergence Acceleration:
 DIIS                   CNVDIIS         .... on
   Start iteration      DIISMaxIt       ....    12
   Startup error        DIISStart       ....  0.200000
   # of expansion vecs  DIISMaxEq       ....     5
   Bias factor          DIISBfac        ....   1.050
   Max. coefficient     DIISMaxC        ....  10.000
 Newton-Raphson         CNVNR           .... off
 SOSCF                  CNVSOSCF        .... off
 Level Shifting         CNVShift        .... on
   Level shift para.    LevelShift      ....    0.2500
   Turn off err/grad.   ShiftErr        ....    0.0010
 Zerner damping         CNVZerner       .... off
 Static damping         CNVDamp         .... on
   Fraction old density DampFac         ....    0.7000
   Max. Damping (<1)    DampMax         ....    0.9800
   Min. Damping (>=0)   DampMin         ....    0.0000
   Turn off err/grad.   DampErr         ....    0.1000
 Fernandez-Rico         CNVRico         .... off

SCF Procedure:
 Maximum # iterations   MaxIter         ....   125
 SCF integral mode      SCFMode         .... Direct
   Integral package                     .... LIBINT
 Reset frequency        DirectResetFreq ....    20
 Integral Threshold     Thresh          ....  2.500e-11 Eh
 Primitive CutOff       TCut            ....  2.500e-12 Eh

Convergence Tolerance:
 Convergence Check Mode ConvCheckMode   .... Total+1el-Energy
 Convergence forced     ConvForced      .... 0
 Energy Change          TolE            ....  1.000e-08 Eh
 1-El. energy change                    ....  1.000e-05 Eh
 DIIS Error             TolErr          ....  5.000e-07


Diagonalization of the overlap matrix:
Smallest eigenvalue                        ... 7.205e-06
Time for diagonalization                   ...    4.001 sec
Threshold for overlap eigenvalues          ... 1.000e-08
Number of eigenvalues below threshold      ... 0
Time for construction of square roots      ...    2.766 sec
Total time needed                          ...    6.839 sec

---------------------
INITIAL GUESS: MOREAD
---------------------
Guess MOs are being read from file: 02_DLPNO-DSD-BLYP.gbw
Input Geometry matches current geometry (good)
Atom 0: N(Shells)= 10 and 6 - projection required
Input basis set needs projection
NBasis(read)= 1466
NBasis(calc)= 2782
Basis set overlap was calculated
Using GuessMode=FMatrix for the initial guess
C*T matrix was formed
Effective Fockian was calculated
Effective Fockian was diagonalized
Initial density was built
                      ------------------
                      INITIAL GUESS DONE (  11.9 sec)
                      ------------------
-------------------
DFT GRID GENERATION
-------------------

General Integration Accuracy     IntAcc      ...  5.010
Radial Grid Type                 RadialGrid  ... Gauss-Chebyshev
Angular Grid (max. acc.)         AngularGrid ... Lebedev-434
Angular grid pruning method      GridPruning ... 3 (G Style)
Weight generation scheme         WeightScheme... Becke
Basis function cutoff            BFCut       ...    1.0000e-11
Integration weight cutoff        WCut        ...    1.0000e-14
Grids for H and He will be reduced by one unit

# of grid points (after initial pruning)     ... 545568 (   0.2 sec)
# of grid points (after weights+screening)   ... 461214 (   7.3 sec)
nearest neighbour list constructed           ...    0.0 sec
Grid point re-assignment to atoms done       ...    0.1 sec
Grid point division into batches done        ...    6.3 sec
Reduced shell lists constructed in   19.4 sec

Total number of grid points                  ...   461214
Total number of batches                      ...     7238
Average number of points per batch           ...       63
Average number of grid points per atom       ...     7817
Average number of shells per batch           ...   223.68 (26.19%)
Average number of basis functions per batch  ...   666.16 (23.95%)
Average number of large shells per batch     ...   134.33 (60.06%)
Average number of large basis fcns per batch ...   402.93 (60.49%)
Maximum spatial batch extension              ...  19.97, 26.93, 26.96 au
Average spatial batch extension              ...   0.43,  0.43,  0.43 au

Time for grid setup =   28.025 sec

--------------------
COSX GRID GENERATION
--------------------

General Integration Accuracy     IntAcc      ...  3.670
Radial Grid Type                 RadialGrid  ... Gauss-Chebyshev
Angular Grid (max. acc.)         AngularGrid ... Lebedev-50
Angular grid pruning method      GridPruning ... 3 (G Style)
Weight generation scheme         WeightScheme... Becke
Basis function cutoff            BFCut       ...    1.0000e-11
Integration weight cutoff        WCut        ...    1.0000e-14
Grids for H and He will be reduced by one unit

# of grid points (after initial pruning)     ...  36190 (   0.1 sec)
# of grid points (after weights+screening)   ...  31884 (   0.5 sec)
nearest neighbour list constructed           ...    0.0 sec
Grid point re-assignment to atoms done       ...    0.0 sec
Grid point division into batches done        ...    0.0 sec
Reduced shell lists constructed in    1.2 sec

Total number of grid points                  ...    31884
Total number of batches                      ...      534
Average number of points per batch           ...       59
Average number of grid points per atom       ...      540
Average number of shells per batch           ...   276.59 (32.39%)
Average number of basis functions per batch  ...   845.27 (30.38%)
Average number of large shells per batch     ...   169.58 (61.31%)
Average number of large basis fcns per batch ...   522.10 (61.77%)
Maximum spatial batch extension              ...  19.21, 16.93, 24.23 au
Average spatial batch extension              ...   1.01,  0.99,  1.04 au

Overlap Fitting                  UseSFitting ... on
Constructing numerical overlap ... done (      2.2 sec)
Inverting numerical overlap    ... done (      0.9 sec)
Obtaining analytic overlap     ... done (      0.1 sec)
Final contraction and storage  ... done (      1.5 sec)


General Integration Accuracy     IntAcc      ...  4.010
Radial Grid Type                 RadialGrid  ... Gauss-Chebyshev
Angular Grid (max. acc.)         AngularGrid ... Lebedev-110
Angular grid pruning method      GridPruning ... 3 (G Style)
Weight generation scheme         WeightScheme... Becke
Basis function cutoff            BFCut       ...    1.0000e-11
Integration weight cutoff        WCut        ...    1.0000e-14
Grids for H and He will be reduced by one unit

# of grid points (after initial pruning)     ...  68532 (   0.0 sec)
# of grid points (after weights+screening)   ...  59940 (   0.9 sec)
nearest neighbour list constructed           ...    0.0 sec
Grid point re-assignment to atoms done       ...    0.0 sec
Grid point division into batches done        ...    0.1 sec
Reduced shell lists constructed in    2.3 sec

Total number of grid points                  ...    59940
Total number of batches                      ...      965
Average number of points per batch           ...       62
Average number of grid points per atom       ...     1016
Average number of shells per batch           ...   265.22 (31.06%)
Average number of basis functions per batch  ...   808.12 (29.05%)
Average number of large shells per batch     ...   162.48 (61.26%)
Average number of large basis fcns per batch ...   497.40 (61.55%)
Maximum spatial batch extension              ...  18.83, 17.69, 25.60 au
Average spatial batch extension              ...   0.83,  0.86,  0.85 au

Overlap Fitting                  UseSFitting ... on
Constructing numerical overlap ... done (      3.7 sec)
Inverting numerical overlap    ... done (      0.8 sec)
Obtaining analytic overlap     ... done (      0.0 sec)
Final contraction and storage  ... done (      1.5 sec)


General Integration Accuracy     IntAcc      ...  4.340
Radial Grid Type                 RadialGrid  ... Gauss-Chebyshev
Angular Grid (max. acc.)         AngularGrid ... Lebedev-302
Angular grid pruning method      GridPruning ... 3 (G Style)
Weight generation scheme         WeightScheme... Becke
Basis function cutoff            BFCut       ...    1.0000e-11
Integration weight cutoff        WCut        ...    1.0000e-14
Grids for H and He will be reduced by one unit

# of grid points (after initial pruning)     ... 266816 (   0.0 sec)
# of grid points (after weights+screening)   ... 226739 (   3.6 sec)
nearest neighbour list constructed           ...    0.0 sec
Grid point re-assignment to atoms done       ...    0.1 sec
Grid point division into batches done        ...    1.4 sec
Reduced shell lists constructed in    8.2 sec

Total number of grid points                  ...   226739
Total number of batches                      ...     3575
Average number of points per batch           ...       63
Average number of grid points per atom       ...     3843
Average number of shells per batch           ...   235.36 (27.56%)
Average number of basis functions per batch  ...   706.38 (25.39%)
Average number of large shells per batch     ...   141.89 (60.29%)
Average number of large basis fcns per batch ...   428.44 (60.65%)
Maximum spatial batch extension              ...  19.99, 18.48, 28.97 au
Average spatial batch extension              ...   0.55,  0.55,  0.55 au

Overlap Fitting                  UseSFitting ... on
Constructing numerical overlap ... done (     11.1 sec)
Inverting numerical overlap    ... done (      0.8 sec)
Obtaining analytic overlap     ... done (      0.0 sec)
Final contraction and storage  ... done (      1.5 sec)

Time for X-Grid setup             =   43.131 sec
--------------
SCF ITERATIONS
--------------
ITER       Energy         Delta-E        Max-DP      RMS-DP      [F,P]     Damp
               ***  Starting incremental Fock matrix formation  ***
  0  -2307.8674127611   0.000000000000 0.11002314  0.00042353  0.0397318 0.7000
  1  -2307.8758387129  -0.008425951814 0.07263561  0.00034810  0.0284877 0.7000
                               ***Turning on DIIS***
  2  -2307.8819352104  -0.006096497547 0.18490121  0.00086526  0.0203835 0.0000
  3  -2307.8967173159  -0.014782105481 0.04905971  0.00012198  0.0009913 0.0000
               *** Restarting incremental Fock matrix formation ***
                                   *** Resetting DIIS ***
  4  -2307.8968039837  -0.000086667733 0.00636634  0.00001958  0.0004259 0.0000
  5  -2307.8968055395  -0.000001555840 0.00045675  0.00000124  0.0005150 0.0000
  6  -2307.8968059794  -0.000000439937 0.00071577  0.00000172  0.0001029 0.0000
  7  -2307.8968060464  -0.000000066982 0.00018184  0.00000040  0.0000317 0.0000
  8  -2307.8968059525   0.000000093876 0.00007750  0.00000023  0.0000133 0.0000
  9  -2307.8968059386   0.000000013961 0.00013493  0.00000025  0.0000068 0.0000
 10  -2307.8968057162   0.000000222382 0.00006070  0.00000010  0.0000016 0.0000
                            ***DIIS convergence achieved***

               *****************************************************
               *                     SUCCESS                       *
               *           SCF CONVERGED AFTER  11 CYCLES          *
               *****************************************************

Old exchange energy                            =   -183.850127176 Eh
New exchange energy                            =   -183.849784588 Eh
Exchange energy change after final integration =      0.000342588 Eh
Total energy after final integration           =  -2307.896463042 Eh
Final COS-X integration done in                =  4996.543 sec

----------------
TOTAL SCF ENERGY
----------------

Total Energy       :        -2307.89646304 Eh          -62801.05550 eV

Components:
Nuclear Repulsion  :         5032.58405678 Eh          136943.57426 eV
Electronic Energy  :        -7340.48051982 Eh         -199744.62977 eV
One Electron Energy:       -13225.00430666 Eh         -359870.66266 eV
Two Electron Energy:         5884.52378684 Eh          160126.03289 eV

Virial components:
Potential Energy   :        -4609.36725585 Eh         -125427.25963 eV
Kinetic Energy     :         2301.47079281 Eh           62626.20413 eV
Virial Ratio       :            2.00279198


DFT components:
N(Alpha)           :      143.000038326739 electrons
N(Beta)            :      143.000038326739 electrons
N(Total)           :      286.000076653477 electrons
E(X)               :      -82.831424432644 Eh       
E(C)               :       -5.527764338838 Eh       
E(XC)              :      -88.359188771482 Eh       
DFET-embed. en.    :        0.000000000000 Eh       

---------------
SCF CONVERGENCE
---------------

  Last Energy change         ...    8.6196e-08  Tolerance :   1.0000e-08
  Last MAX-Density change    ...    0.0000e+00  Tolerance :   1.0000e-07
  Last RMS-Density change    ...    0.0000e+00  Tolerance :   5.0000e-09
  Last DIIS Error            ...    7.5022e-07  Tolerance :   5.0000e-07

             **** THE GBW FILE WAS UPDATED (05_DLPNO-DSD-BLYP-Expen.gbw) ****
             **** DENSITY FILE WAS UPDATED (05_DLPNO-DSD-BLYP-Expen.scfp) ****
             **** ENERGY FILE WAS UPDATED (05_DLPNO-DSD-BLYP-Expen.en.tmp) ****
             **** THE GBW FILE WAS UPDATED (05_DLPNO-DSD-BLYP-Expen.gbw) ****
             **** DENSITY FILE WAS UPDATED (05_DLPNO-DSD-BLYP-Expen.scfp) ****
----------------
ORBITAL ENERGIES
----------------

  NO   OCC          E(Eh)            E(eV) 
   0   2.0000     -78.808266     -2144.4819 
   1   2.0000     -19.971236      -543.4450 
   2   2.0000     -19.954404      -542.9869 
   3   2.0000     -19.949691      -542.8587 
   4   2.0000     -19.944514      -542.7178 
   5   2.0000     -19.940691      -542.6138 
   6   2.0000     -19.929889      -542.3198 
   7   2.0000     -19.924204      -542.1652 
   8   2.0000     -19.921515      -542.0920 
   9   2.0000     -19.906403      -541.6808 
  10   2.0000     -19.904154      -541.6196 
  11   2.0000     -19.894404      -541.3542 
  12   2.0000     -19.893466      -541.3287 
  13   2.0000     -19.812146      -539.1159 
  14   2.0000     -19.808409      -539.0142 
  15   2.0000     -15.072927      -410.1552 
  16   2.0000     -15.069099      -410.0510 
  17   2.0000     -15.059006      -409.7764 
  18   2.0000     -15.057180      -409.7267 
  19   2.0000     -10.912583      -296.9465 
  20   2.0000     -10.912276      -296.9381 
  21   2.0000     -10.872033      -295.8431 
  22   2.0000     -10.871069      -295.8168 
  23   2.0000     -10.855850      -295.4027 
  24   2.0000     -10.846997      -295.1618 
  25   2.0000     -10.827251      -294.6245 
  26   2.0000     -10.821634      -294.4716 
  27   2.0000     -10.816618      -294.3351 
  28   2.0000     -10.815779      -294.3123 
  29   2.0000     -10.813205      -294.2423 
  30   2.0000     -10.813099      -294.2394 
  31   2.0000     -10.811387      -294.1928 
  32   2.0000     -10.803478      -293.9776 
  33   2.0000     -10.802966      -293.9637 
  34   2.0000     -10.800381      -293.8933 
  35   2.0000     -10.750858      -292.5457 
  36   2.0000     -10.746524      -292.4278 
  37   2.0000      -7.073053      -192.4675 
  38   2.0000      -5.076019      -138.1255 
  39   2.0000      -5.074401      -138.0815 
  40   2.0000      -5.071651      -138.0066 
  41   2.0000      -1.215794       -33.0834 
  42   2.0000      -1.211652       -32.9707 
  43   2.0000      -1.200200       -32.6591 
  44   2.0000      -1.198348       -32.6087 
  45   2.0000      -1.179868       -32.1058 
  46   2.0000      -1.171812       -31.8866 
  47   2.0000      -1.164796       -31.6957 
  48   2.0000      -1.161804       -31.6143 
  49   2.0000      -1.159544       -31.5528 
  50   2.0000      -1.156150       -31.4604 
  51   2.0000      -1.148941       -31.2643 
  52   2.0000      -1.126489       -30.6533 
  53   2.0000      -1.089568       -29.6487 
  54   2.0000      -1.088708       -29.6252 
  55   2.0000      -1.035438       -28.1757 
  56   2.0000      -1.034246       -28.1433 
  57   2.0000      -1.031234       -28.0613 
  58   2.0000      -0.990783       -26.9606 
  59   2.0000      -0.890910       -24.2429 
  60   2.0000      -0.887126       -24.1399 
  61   2.0000      -0.881081       -23.9754 
  62   2.0000      -0.872713       -23.7477 
  63   2.0000      -0.845375       -23.0038 
  64   2.0000      -0.844634       -22.9836 
  65   2.0000      -0.765034       -20.8176 
  66   2.0000      -0.762683       -20.7536 
  67   2.0000      -0.749926       -20.4065 
  68   2.0000      -0.747724       -20.3466 
  69   2.0000      -0.706541       -19.2260 
  70   2.0000      -0.704958       -19.1829 
  71   2.0000      -0.672809       -18.3081 
  72   2.0000      -0.667893       -18.1743 
  73   2.0000      -0.658237       -17.9116 
  74   2.0000      -0.649074       -17.6622 
  75   2.0000      -0.614213       -16.7136 
  76   2.0000      -0.612284       -16.6611 
  77   2.0000      -0.601857       -16.3774 
  78   2.0000      -0.600351       -16.3364 
  79   2.0000      -0.587808       -15.9951 
  80   2.0000      -0.584669       -15.9097 
  81   2.0000      -0.579257       -15.7624 
  82   2.0000      -0.562709       -15.3121 
  83   2.0000      -0.551855       -15.0167 
  84   2.0000      -0.550201       -14.9717 
  85   2.0000      -0.544260       -14.8101 
  86   2.0000      -0.538490       -14.6531 
  87   2.0000      -0.526171       -14.3178 
  88   2.0000      -0.522110       -14.2073 
  89   2.0000      -0.516743       -14.0613 
  90   2.0000      -0.510849       -13.9009 
  91   2.0000      -0.507686       -13.8148 
  92   2.0000      -0.499869       -13.6021 
  93   2.0000      -0.498462       -13.5638 
  94   2.0000      -0.488229       -13.2854 
  95   2.0000      -0.482533       -13.1304 
  96   2.0000      -0.481886       -13.1128 
  97   2.0000      -0.472814       -12.8659 
  98   2.0000      -0.469728       -12.7820 
  99   2.0000      -0.467975       -12.7343 
 100   2.0000      -0.461059       -12.5461 
 101   2.0000      -0.453306       -12.3351 
 102   2.0000      -0.450054       -12.2466 
 103   2.0000      -0.447059       -12.1651 
 104   2.0000      -0.443551       -12.0696 
 105   2.0000      -0.442249       -12.0342 
 106   2.0000      -0.437643       -11.9089 
 107   2.0000      -0.430252       -11.7078 
 108   2.0000      -0.426254       -11.5990 
 109   2.0000      -0.420949       -11.4546 
 110   2.0000      -0.414234       -11.2719 
 111   2.0000      -0.407995       -11.1021 
 112   2.0000      -0.404935       -11.0188 
 113   2.0000      -0.401011       -10.9121 
 114   2.0000      -0.395140       -10.7523 
 115   2.0000      -0.391043       -10.6408 
 116   2.0000      -0.389914       -10.6101 
 117   2.0000      -0.374805       -10.1990 
 118   2.0000      -0.373294       -10.1579 
 119   2.0000      -0.362859        -9.8739 
 120   2.0000      -0.360886        -9.8202 
 121   2.0000      -0.355619        -9.6769 
 122   2.0000      -0.341168        -9.2836 
 123   2.0000      -0.332601        -9.0505 
 124   2.0000      -0.329816        -8.9747 
 125   2.0000      -0.324240        -8.8230 
 126   2.0000      -0.321784        -8.7562 
 127   2.0000      -0.321281        -8.7425 
 128   2.0000      -0.314010        -8.5446 
 129   2.0000      -0.310098        -8.4382 
 130   2.0000      -0.306588        -8.3427 
 131   2.0000      -0.296980        -8.0812 
 132   2.0000      -0.295205        -8.0329 
 133   2.0000      -0.291587        -7.9345 
 134   2.0000      -0.286549        -7.7974 
 135   2.0000      -0.286251        -7.7893 
 136   2.0000      -0.284505        -7.7418 
 137   2.0000      -0.279829        -7.6145 
 138   2.0000      -0.263486        -7.1698 
 139   2.0000      -0.244570        -6.6551 
 140   2.0000      -0.231210        -6.2915 
 141   2.0000      -0.223874        -6.0919 
 142   2.0000      -0.223341        -6.0774 
 143   0.0000       0.113411         3.0861 
 144   0.0000       0.123935         3.3724 
 145   0.0000       0.125881         3.4254 
 146   0.0000       0.127634         3.4731 
 147   0.0000       0.149407         4.0656 
 148   0.0000       0.155770         4.2387 
 149   0.0000       0.160619         4.3707 
 150   0.0000       0.169477         4.6117 
 151   0.0000       0.172296         4.6884 
 152   0.0000       0.178883         4.8677 
 153   0.0000       0.181028         4.9260 
 154   0.0000       0.184373         5.0171 
 155   0.0000       0.184913         5.0317 
 156   0.0000       0.188617         5.1325 
 157   0.0000       0.191156         5.2016 
 158   0.0000       0.199099         5.4178 
 159   0.0000       0.203377         5.5342 
 160   0.0000       0.206464         5.6182 
 161   0.0000       0.214376         5.8335 
 162   0.0000       0.216243         5.8843 
 163   0.0000       0.219680         5.9778 
 164   0.0000       0.224476         6.1083 
 165   0.0000       0.227321         6.1857 
 166   0.0000       0.232895         6.3374 
 167   0.0000       0.242086         6.5875 
 168   0.0000       0.244398         6.6504 
 169   0.0000       0.249135         6.7793 
 170   0.0000       0.254162         6.9161 
 171   0.0000       0.256542         6.9809 
 172   0.0000       0.262379         7.1397 
 173   0.0000       0.266117         7.2414 
 174   0.0000       0.269738         7.3400 
 175   0.0000       0.275060         7.4848 
 176   0.0000       0.278189         7.5699 
 177   0.0000       0.278573         7.5804 
 178   0.0000       0.282694         7.6925 
 179   0.0000       0.286499         7.7960 
 180   0.0000       0.290916         7.9162 
 181   0.0000       0.295817         8.0496 
 182   0.0000       0.296157         8.0588 
 183   0.0000       0.297674         8.1001 
 184   0.0000       0.303383         8.2555 
 185   0.0000       0.309769         8.4292 
 186   0.0000       0.315723         8.5913 
 187   0.0000       0.316939         8.6244 
 188   0.0000       0.319946         8.7062 
 189   0.0000       0.322916         8.7870 
 190   0.0000       0.327550         8.9131 
 191   0.0000       0.329023         8.9532 
 192   0.0000       0.331941         9.0326 
 193   0.0000       0.337922         9.1953 
 194   0.0000       0.338946         9.2232 
 195   0.0000       0.340712         9.2712 
 196   0.0000       0.346445         9.4272 
 197   0.0000       0.349396         9.5075 
 198   0.0000       0.350055         9.5255 
 199   0.0000       0.352968         9.6048 
 200   0.0000       0.358434         9.7535 
 201   0.0000       0.360561         9.8114 
 202   0.0000       0.363497         9.8913 
 203   0.0000       0.367154         9.9908 
 204   0.0000       0.368077        10.0159 
 205   0.0000       0.373475        10.1628 
 206   0.0000       0.375041        10.2054 
 207   0.0000       0.377404        10.2697 
 208   0.0000       0.381596        10.3837 
 209   0.0000       0.382159        10.3991 
 210   0.0000       0.384217        10.4551 
 211   0.0000       0.386751        10.5240 
 212   0.0000       0.389623        10.6022 
 213   0.0000       0.391345        10.6490 
 214   0.0000       0.393764        10.7149 
 215   0.0000       0.398649        10.8478 
 216   0.0000       0.400374        10.8947 
 217   0.0000       0.404049        10.9947 
 218   0.0000       0.406605        11.0643 
 219   0.0000       0.407975        11.1016 
 220   0.0000       0.411697        11.2028 
 221   0.0000       0.413087        11.2407 
 222   0.0000       0.416850        11.3431 
 223   0.0000       0.418748        11.3947 
 224   0.0000       0.421484        11.4692 
 225   0.0000       0.423606        11.5269 
 226   0.0000       0.426351        11.6016 
 227   0.0000       0.430519        11.7150 
 228   0.0000       0.433084        11.7848 
 229   0.0000       0.433944        11.8082 
 230   0.0000       0.437591        11.9075 
 231   0.0000       0.440036        11.9740 
 232   0.0000       0.443861        12.0781 
 233   0.0000       0.444496        12.0953 
 234   0.0000       0.447791        12.1850 
 235   0.0000       0.449811        12.2400 
 236   0.0000       0.451499        12.2859 
 237   0.0000       0.454460        12.3665 
 238   0.0000       0.455879        12.4051 
 239   0.0000       0.458067        12.4646 
 240   0.0000       0.460148        12.5213 
 241   0.0000       0.462922        12.5968 
 242   0.0000       0.465632        12.6705 
 243   0.0000       0.468673        12.7532 
 244   0.0000       0.470132        12.7929 
 245   0.0000       0.473779        12.8922 
 246   0.0000       0.475307        12.9338 
 247   0.0000       0.479625        13.0513 
 248   0.0000       0.479884        13.0583 
 249   0.0000       0.484734        13.1903 
 250   0.0000       0.485650        13.2152 
 251   0.0000       0.486644        13.2423 
 252   0.0000       0.489698        13.3254 
 253   0.0000       0.493761        13.4359 
 254   0.0000       0.496656        13.5147 
 255   0.0000       0.496921        13.5219 
 256   0.0000       0.504250        13.7213 
 257   0.0000       0.505946        13.7675 
 258   0.0000       0.506657        13.7868 
 259   0.0000       0.507615        13.8129 
 260   0.0000       0.511124        13.9084 
 261   0.0000       0.514565        14.0020 
 262   0.0000       0.519185        14.1278 
 263   0.0000       0.520037        14.1509 
 264   0.0000       0.522536        14.2189 
 265   0.0000       0.523211        14.2373 
 266   0.0000       0.525261        14.2931 
 267   0.0000       0.528513        14.3816 
 268   0.0000       0.531936        14.4747 
 269   0.0000       0.533768        14.5246 
 270   0.0000       0.536416        14.5966 
 271   0.0000       0.538234        14.6461 
 272   0.0000       0.541436        14.7332 
 273   0.0000       0.544536        14.8176 
 274   0.0000       0.548367        14.9218 
 275   0.0000       0.550968        14.9926 
 276   0.0000       0.553157        15.0522 
 277   0.0000       0.555694        15.1212 
 278   0.0000       0.558666        15.2021 
 279   0.0000       0.559452        15.2235 
 280   0.0000       0.568138        15.4598 
 281   0.0000       0.569607        15.4998 
 282   0.0000       0.570892        15.5348 
 283   0.0000       0.577080        15.7032 
 284   0.0000       0.579644        15.7729 
 285   0.0000       0.583204        15.8698 
 286   0.0000       0.586739        15.9660 
 287   0.0000       0.588126        16.0037 
 288   0.0000       0.590143        16.0586 
 289   0.0000       0.592234        16.1155 
 290   0.0000       0.592513        16.1231 
 291   0.0000       0.598788        16.2938 
 292   0.0000       0.599858        16.3230 
 293   0.0000       0.601612        16.3707 
 294   0.0000       0.604887        16.4598 
 295   0.0000       0.612463        16.6660 
 296   0.0000       0.614774        16.7289 
 297   0.0000       0.616034        16.7631 
 298   0.0000       0.619527        16.8582 
 299   0.0000       0.621111        16.9013 
 300   0.0000       0.626380        17.0447 
 301   0.0000       0.629808        17.1379 
 302   0.0000       0.630402        17.1541 
 303   0.0000       0.634140        17.2558 
 304   0.0000       0.637875        17.3575 
 305   0.0000       0.639206        17.3937 
 306   0.0000       0.645123        17.5547 
 307   0.0000       0.645490        17.5647 
 308   0.0000       0.653085        17.7713 
 309   0.0000       0.655115        17.8266 
 310   0.0000       0.656405        17.8617 
 311   0.0000       0.658471        17.9179 
 312   0.0000       0.659002        17.9324 
 313   0.0000       0.665829        18.1181 
 314   0.0000       0.668909        18.2020 
 315   0.0000       0.670669        18.2498 
 316   0.0000       0.673965        18.3395 
 317   0.0000       0.679575        18.4922 
 318   0.0000       0.682886        18.5823 
 319   0.0000       0.683155        18.5896 
 320   0.0000       0.685859        18.6632 
 321   0.0000       0.689498        18.7622 
 322   0.0000       0.691145        18.8070 
 323   0.0000       0.695234        18.9183 
 324   0.0000       0.695963        18.9381 
 325   0.0000       0.697449        18.9786 
 326   0.0000       0.701303        19.0834 
 327   0.0000       0.703530        19.1440 
 328   0.0000       0.705248        19.1908 
 329   0.0000       0.714185        19.4340 
 330   0.0000       0.716238        19.4898 
 331   0.0000       0.719930        19.5903 
 332   0.0000       0.721247        19.6261 
 333   0.0000       0.725646        19.7458 
 334   0.0000       0.727785        19.8040 
 335   0.0000       0.731388        19.9021 
 336   0.0000       0.734405        19.9842 
 337   0.0000       0.741164        20.1681 
 338   0.0000       0.742966        20.2171 
 339   0.0000       0.746157        20.3040 
 340   0.0000       0.751439        20.4477 
 341   0.0000       0.751958        20.4618 
 342   0.0000       0.755570        20.5601 
 343   0.0000       0.759170        20.6581 
 344   0.0000       0.763676        20.7807 
 345   0.0000       0.766420        20.8553 
 346   0.0000       0.768274        20.9058 
 347   0.0000       0.771310        20.9884 
 348   0.0000       0.773844        21.0574 
 349   0.0000       0.778531        21.1849 
 350   0.0000       0.780805        21.2468 
 351   0.0000       0.786742        21.4083 
 352   0.0000       0.788372        21.4527 
 353   0.0000       0.791409        21.5353 
 354   0.0000       0.796516        21.6743 
 355   0.0000       0.798863        21.7382 
 356   0.0000       0.801272        21.8037 
 357   0.0000       0.803619        21.8676 
 358   0.0000       0.806116        21.9355 
 359   0.0000       0.807035        21.9605 
 360   0.0000       0.813037        22.1239 
 361   0.0000       0.818101        22.2617 
 362   0.0000       0.820196        22.3187 
 363   0.0000       0.822556        22.3829 
 364   0.0000       0.825158        22.4537 
 365   0.0000       0.828953        22.5570 
 366   0.0000       0.832073        22.6419 
 367   0.0000       0.832397        22.6507 
 368   0.0000       0.836571        22.7643 
 369   0.0000       0.837222        22.7820 
 370   0.0000       0.841426        22.8964 
 371   0.0000       0.846771        23.0418 
 372   0.0000       0.850305        23.1380 
 373   0.0000       0.853773        23.2323 
 374   0.0000       0.856991        23.3199 
 375   0.0000       0.861888        23.4532 
 376   0.0000       0.863951        23.5093 
 377   0.0000       0.864466        23.5233 
 378   0.0000       0.867449        23.6045 
 379   0.0000       0.871232        23.7074 
 380   0.0000       0.876871        23.8609 
 381   0.0000       0.879062        23.9205 
 382   0.0000       0.881211        23.9790 
 383   0.0000       0.882539        24.0151 
 384   0.0000       0.886070        24.1112 
 385   0.0000       0.893201        24.3052 
 386   0.0000       0.895026        24.3549 
 387   0.0000       0.900243        24.4969 
 388   0.0000       0.902079        24.5468 
 389   0.0000       0.906840        24.6764 
 390   0.0000       0.912509        24.8306 
 391   0.0000       0.913447        24.8562 
 392   0.0000       0.914815        24.8934 
 393   0.0000       0.919733        25.0272 
 394   0.0000       0.927175        25.2297 
 395   0.0000       0.928260        25.2592 
 396   0.0000       0.932819        25.3833 
 397   0.0000       0.934298        25.4235 
 398   0.0000       0.938417        25.5356 
 399   0.0000       0.941983        25.6327 
 400   0.0000       0.944404        25.6986 
 401   0.0000       0.948614        25.8131 
 402   0.0000       0.955090        25.9893 
 403   0.0000       0.956766        26.0349 
 404   0.0000       0.960252        26.1298 
 405   0.0000       0.962922        26.2024 
 406   0.0000       0.966943        26.3119 
 407   0.0000       0.973496        26.4902 
 408   0.0000       0.974869        26.5275 
 409   0.0000       0.977441        26.5975 
 410   0.0000       0.980159        26.6715 
 411   0.0000       0.981532        26.7089 
 412   0.0000       0.984779        26.7972 
 413   0.0000       0.990494        26.9527 
 414   0.0000       0.993720        27.0405 
 415   0.0000       0.995922        27.1004 
 416   0.0000       0.998008        27.1572 
 417   0.0000       0.999385        27.1946 
 418   0.0000       1.002747        27.2861 
 419   0.0000       1.005743        27.3677 
 420   0.0000       1.009394        27.4670 
 421   0.0000       1.012213        27.5437 
 422   0.0000       1.016743        27.6670 
 423   0.0000       1.021417        27.7942 
 424   0.0000       1.023118        27.8404 
 425   0.0000       1.028148        27.9773 
 426   0.0000       1.030075        28.0298 
 427   0.0000       1.031650        28.0726 
 428   0.0000       1.036126        28.1944 
 429   0.0000       1.038370        28.2555 
 430   0.0000       1.041862        28.3505 
 431   0.0000       1.046502        28.4768 
 432   0.0000       1.046906        28.4878 
 433   0.0000       1.051813        28.6213 
 434   0.0000       1.055892        28.7323 
 435   0.0000       1.059110        28.8198 
 436   0.0000       1.063275        28.9332 
 437   0.0000       1.066268        29.0146 
 438   0.0000       1.068124        29.0651 
 439   0.0000       1.070058        29.1177 
 440   0.0000       1.075031        29.2531 
 441   0.0000       1.076499        29.2930 
 442   0.0000       1.079966        29.3874 
 443   0.0000       1.082551        29.4577 
 444   0.0000       1.085584        29.5402 
 445   0.0000       1.086902        29.5761 
 446   0.0000       1.091650        29.7053 
 447   0.0000       1.093116        29.7452 
 448   0.0000       1.094779        29.7904 
 449   0.0000       1.097054        29.8524 
 450   0.0000       1.102103        29.9898 
 451   0.0000       1.103806        30.0361 
 452   0.0000       1.108453        30.1625 
 453   0.0000       1.109380        30.1878 
 454   0.0000       1.112978        30.2857 
 455   0.0000       1.115396        30.3515 
 456   0.0000       1.116693        30.3868 
 457   0.0000       1.119785        30.4709 
 458   0.0000       1.122957        30.5572 
 459   0.0000       1.126717        30.6595 
 460   0.0000       1.128528        30.7088 
 461   0.0000       1.133739        30.8506 
 462   0.0000       1.134989        30.8846 
 463   0.0000       1.139114        30.9969 
 464   0.0000       1.142228        31.0816 
 465   0.0000       1.145759        31.1777 
 466   0.0000       1.146482        31.1974 
 467   0.0000       1.153554        31.3898 
 468   0.0000       1.157332        31.4926 
 469   0.0000       1.161276        31.5999 
 470   0.0000       1.164206        31.6797 
 471   0.0000       1.166795        31.7501 
 472   0.0000       1.170202        31.8428 
 473   0.0000       1.171446        31.8767 
 474   0.0000       1.173631        31.9361 
 475   0.0000       1.183495        32.2045 
 476   0.0000       1.187350        32.3094 
 477   0.0000       1.187514        32.3139 
 478   0.0000       1.192089        32.4384 
 479   0.0000       1.193058        32.4648 
 480   0.0000       1.195181        32.5225 
 481   0.0000       1.198221        32.6053 
 482   0.0000       1.201584        32.6968 
 483   0.0000       1.203487        32.7485 
 484   0.0000       1.205401        32.8006 
 485   0.0000       1.210973        32.9523 
 486   0.0000       1.213485        33.0206 
 487   0.0000       1.217730        33.1361 
 488   0.0000       1.222856        33.2756 
 489   0.0000       1.223045        33.2808 
 490   0.0000       1.227476        33.4013 
 491   0.0000       1.232471        33.5372 
 492   0.0000       1.233479        33.5647 
 493   0.0000       1.237548        33.6754 
 494   0.0000       1.240815        33.7643 
 495   0.0000       1.245148        33.8822 
 496   0.0000       1.248286        33.9676 
 497   0.0000       1.251612        34.0581 
 498   0.0000       1.254742        34.1433 
 499   0.0000       1.258390        34.2425 
 500   0.0000       1.260731        34.3062 
 501   0.0000       1.264293        34.4032 
 502   0.0000       1.268243        34.5106 
 503   0.0000       1.272946        34.6386 
 504   0.0000       1.275841        34.7174 
 505   0.0000       1.278491        34.7895 
 506   0.0000       1.283137        34.9159 
 507   0.0000       1.285589        34.9826 
 508   0.0000       1.289836        35.0982 
 509   0.0000       1.293099        35.1870 
 510   0.0000       1.297842        35.3161 
 511   0.0000       1.301171        35.4067 
 512   0.0000       1.308752        35.6129 
 513   0.0000       1.309774        35.6408 
 514   0.0000       1.313292        35.7365 
 515   0.0000       1.315777        35.8041 
 516   0.0000       1.319056        35.8933 
 517   0.0000       1.321267        35.9535 
 518   0.0000       1.322799        35.9952 
 519   0.0000       1.325808        36.0771 
 520   0.0000       1.328080        36.1389 
 521   0.0000       1.333822        36.2951 
 522   0.0000       1.338030        36.4096 
 523   0.0000       1.343308        36.5533 
 524   0.0000       1.345805        36.6212 
 525   0.0000       1.349345        36.7175 
 526   0.0000       1.351059        36.7642 
 527   0.0000       1.352623        36.8068 
 528   0.0000       1.356889        36.9228 
 529   0.0000       1.359979        37.0069 
 530   0.0000       1.361327        37.0436 
 531   0.0000       1.365168        37.1481 
 532   0.0000       1.367394        37.2087 
 533   0.0000       1.369261        37.2595 
 534   0.0000       1.374296        37.3965 
 535   0.0000       1.377488        37.4834 
 536   0.0000       1.379625        37.5415 
 537   0.0000       1.384506        37.6743 
 538   0.0000       1.386430        37.7267 
 539   0.0000       1.389098        37.7993 
 540   0.0000       1.395348        37.9694 
 541   0.0000       1.397333        38.0234 
 542   0.0000       1.403314        38.1861 
 543   0.0000       1.404562        38.2201 
 544   0.0000       1.409538        38.3555 
 545   0.0000       1.412844        38.4454 
 546   0.0000       1.415227        38.5103 
 547   0.0000       1.421377        38.6776 
 548   0.0000       1.425715        38.7957 
 549   0.0000       1.427403        38.8416 
 550   0.0000       1.432607        38.9832 
 551   0.0000       1.438596        39.1462 
 552   0.0000       1.442434        39.2506 
 553   0.0000       1.446860        39.3711 
 554   0.0000       1.453754        39.5587 
 555   0.0000       1.454476        39.5783 
 556   0.0000       1.458829        39.6967 
 557   0.0000       1.459413        39.7126 
 558   0.0000       1.464873        39.8612 
 559   0.0000       1.465586        39.8806 
 560   0.0000       1.474736        40.1296 
 561   0.0000       1.478242        40.2250 
 562   0.0000       1.480500        40.2864 
 563   0.0000       1.487616        40.4801 
 564   0.0000       1.492091        40.6019 
 565   0.0000       1.496412        40.7194 
 566   0.0000       1.497921        40.7605 
 567   0.0000       1.501051        40.8457 
 568   0.0000       1.508930        41.0601 
 569   0.0000       1.510401        41.1001 
 570   0.0000       1.514658        41.2160 
 571   0.0000       1.515483        41.2384 
 572   0.0000       1.517270        41.2870 
 573   0.0000       1.523473        41.4558 
 574   0.0000       1.526879        41.5485 
 575   0.0000       1.529983        41.6330 
 576   0.0000       1.534449        41.7545 
 577   0.0000       1.539703        41.8974 
 578   0.0000       1.542242        41.9665 
 579   0.0000       1.546215        42.0746 
 580   0.0000       1.549896        42.1748 
 581   0.0000       1.554315        42.2951 
 582   0.0000       1.558117        42.3985 
 583   0.0000       1.560395        42.4605 
 584   0.0000       1.561875        42.5008 
 585   0.0000       1.569339        42.7039 
 586   0.0000       1.571696        42.7680 
 587   0.0000       1.578160        42.9439 
 588   0.0000       1.582824        43.0708 
 589   0.0000       1.587558        43.1996 
 590   0.0000       1.592269        43.3279 
 591   0.0000       1.595387        43.4127 
 592   0.0000       1.600016        43.5387 
 593   0.0000       1.604210        43.6528 
 594   0.0000       1.608002        43.7560 
 595   0.0000       1.609703        43.8022 
 596   0.0000       1.615519        43.9605 
 597   0.0000       1.617484        44.0140 
 598   0.0000       1.622266        44.1441 
 599   0.0000       1.625918        44.2435 
 600   0.0000       1.629440        44.3393 
 601   0.0000       1.632268        44.4163 
 602   0.0000       1.633615        44.4529 
 603   0.0000       1.641055        44.6554 
 604   0.0000       1.644031        44.7364 
 605   0.0000       1.645653        44.7805 
 606   0.0000       1.656190        45.0672 
 607   0.0000       1.658466        45.1292 
 608   0.0000       1.662861        45.2487 
 609   0.0000       1.665268        45.3142 
 610   0.0000       1.666324        45.3430 
 611   0.0000       1.668058        45.3902 
 612   0.0000       1.672309        45.5059 
 613   0.0000       1.677667        45.6516 
 614   0.0000       1.680745        45.7354 
 615   0.0000       1.684417        45.8353 
 616   0.0000       1.690040        45.9883 
 617   0.0000       1.690817        46.0095 
 618   0.0000       1.691529        46.0288 
 619   0.0000       1.698984        46.2317 
 620   0.0000       1.701014        46.2869 
 621   0.0000       1.702624        46.3308 
 622   0.0000       1.708884        46.5011 
 623   0.0000       1.710894        46.5558 
 624   0.0000       1.713409        46.6242 
 625   0.0000       1.716056        46.6962 
 626   0.0000       1.717858        46.7453 
 627   0.0000       1.723579        46.9010 
 628   0.0000       1.725205        46.9452 
 629   0.0000       1.729413        47.0597 
 630   0.0000       1.735188        47.2169 
 631   0.0000       1.738385        47.3038 
 632   0.0000       1.742044        47.4034 
 633   0.0000       1.746898        47.5355 
 634   0.0000       1.749529        47.6071 
 635   0.0000       1.754041        47.7299 
 636   0.0000       1.755355        47.7656 
 637   0.0000       1.758915        47.8625 
 638   0.0000       1.764352        48.0104 
 639   0.0000       1.766850        48.0784 
 640   0.0000       1.771097        48.1940 
 641   0.0000       1.775865        48.3238 
 642   0.0000       1.776571        48.3429 
 643   0.0000       1.779338        48.4183 
 644   0.0000       1.782221        48.4967 
 645   0.0000       1.784471        48.5579 
 646   0.0000       1.789372        48.6913 
 647   0.0000       1.793633        48.8072 
 648   0.0000       1.794585        48.8331 
 649   0.0000       1.797770        48.9198 
 650   0.0000       1.799873        48.9770 
 651   0.0000       1.804336        49.0985 
 652   0.0000       1.810389        49.2632 
 653   0.0000       1.812600        49.3233 
 654   0.0000       1.812886        49.3311 
 655   0.0000       1.816771        49.4369 
 656   0.0000       1.822129        49.5827 
 657   0.0000       1.823747        49.6267 
 658   0.0000       1.827423        49.7267 
 659   0.0000       1.834410        49.9168 
 660   0.0000       1.837511        50.0012 
 661   0.0000       1.841716        50.1156 
 662   0.0000       1.843392        50.1613 
 663   0.0000       1.845061        50.2067 
 664   0.0000       1.852076        50.3976 
 665   0.0000       1.855939        50.5027 
 666   0.0000       1.858254        50.5656 
 667   0.0000       1.863085        50.6971 
 668   0.0000       1.866013        50.7768 
 669   0.0000       1.868905        50.8555 
 670   0.0000       1.873462        50.9795 
 671   0.0000       1.876195        51.0538 
 672   0.0000       1.879537        51.1448 
 673   0.0000       1.886147        51.3247 
 674   0.0000       1.888569        51.3906 
 675   0.0000       1.894628        51.5555 
 676   0.0000       1.897133        51.6236 
 677   0.0000       1.898136        51.6509 
 678   0.0000       1.903582        51.7991 
 679   0.0000       1.906031        51.8657 
 680   0.0000       1.912936        52.0536 
 681   0.0000       1.914499        52.0962 
 682   0.0000       1.916891        52.1613 
 683   0.0000       1.920371        52.2559 
 684   0.0000       1.922194        52.3056 
 685   0.0000       1.929307        52.4991 
 686   0.0000       1.932819        52.5947 
[...]
Localization criterion                   ... FOSTER-BOYS (AUGMENTED HESSIAN)
Doing the dipole integrals     ... o.k.
Initial value of the localization sum :  5295.981519
ITERATION   0 : L= 5598.9341088680 DL=  3.03e+02 (AVERGE_DL)=    0.2425166498 
ITERATION   1 : L= 5659.8372413165 DL=  6.09e+01 (AVERGE_DL)=    0.1087361721 
ITERATION   2 : L= 5661.8889241664 DL=  2.05e+00 (AVERGE_DL)=    0.0199576471 
ITERATION   3 : L= 5661.9858911184 DL=  9.70e-02 (AVERGE_DL)=    0.0043387647 
ITERATION   4 : L= 5662.0101592114 DL=  2.43e-02 (AVERGE_DL)=    0.0021705613 
ITERATION   5 : L= 5662.0209689071 DL=  1.08e-02 (AVERGE_DL)=    0.0014486416 
ITERATION   6 : L= 5662.0277394803 DL=  6.77e-03 (AVERGE_DL)=    0.0011464812 
ITERATION   7 : L= 5662.0331862534 DL=  5.45e-03 (AVERGE_DL)=    0.0010283095 
ITERATION   8 : L= 5662.0381571594 DL=  4.97e-03 (AVERGE_DL)=    0.0009823630 
ITERATION   9 : L= 5662.0429241877 DL=  4.77e-03 (AVERGE_DL)=    0.0009620067 
ITERATION  10 : L= 5662.0475482077 DL=  4.62e-03 (AVERGE_DL)=    0.0009474670 
ITERATION  11 : L= 5662.0520062650 DL=  4.46e-03 (AVERGE_DL)=    0.0009303086 
ITERATION  12 : L= 5662.0562466347 DL=  4.24e-03 (AVERGE_DL)=    0.0009073108 
ITERATION  13 : L= 5662.0602158692 DL=  3.97e-03 (AVERGE_DL)=    0.0008778243 
ITERATION  14 : L= 5662.0638710414 DL=  3.66e-03 (AVERGE_DL)=    0.0008423802 
ITERATION  15 : L= 5662.0671838501 DL=  3.31e-03 (AVERGE_DL)=    0.0008019594 
ITERATION  16 : L= 5662.0701407574 DL=  2.96e-03 (AVERGE_DL)=    0.0007576578 
ITERATION  17 : L= 5662.0727414958 DL=  2.60e-03 (AVERGE_DL)=    0.0007105630 
ITERATION  18 : L= 5662.0749969341 DL=  2.26e-03 (AVERGE_DL)=    0.0006617131 
ITERATION  19 : L= 5662.0769267429 DL=  1.93e-03 (AVERGE_DL)=    0.0006120845 
ITERATION  20 : L= 5662.0785569373 DL=  1.63e-03 (AVERGE_DL)=    0.0005625666 
ITERATION  21 : L= 5662.0799175726 DL=  1.36e-03 (AVERGE_DL)=    0.0005139550 
ITERATION  22 : L= 5662.0810405545 DL=  1.12e-03 (AVERGE_DL)=    0.0004669180 
ITERATION  23 : L= 5662.0819578461 DL=  9.17e-04 (AVERGE_DL)=    0.0004219956 
ITERATION  24 : L= 5662.0827000910 DL=  7.42e-04 (AVERGE_DL)=    0.0003796014 
ITERATION  25 : L= 5662.0832955924 DL=  5.96e-04 (AVERGE_DL)=    0.0003400131 
ITERATION  26 : L= 5662.0837697646 DL=  4.74e-04 (AVERGE_DL)=    0.0003034047 
ITERATION  27 : L= 5662.0841448695 DL=  3.75e-04 (AVERGE_DL)=    0.0002698551 
ITERATION  28 : L= 5662.0844400173 DL=  2.95e-04 (AVERGE_DL)=    0.0002393724 
ITERATION  29 : L= 5662.0846713397 DL=  2.31e-04 (AVERGE_DL)=    0.0002119157 
ITERATION  30 : L= 5662.0848522893 DL=  1.81e-04 (AVERGE_DL)=    0.0001874274 
ITERATION  31 : L= 5662.0849939777 DL=  1.42e-04 (AVERGE_DL)=    0.0001658523 
ITERATION  32 : L= 5662.0851055833 DL=  1.12e-04 (AVERGE_DL)=    0.0001471964 
ITERATION  33 : L= 5662.0851947301 DL=  8.91e-05 (AVERGE_DL)=    0.0001315550 
ITERATION  34 : L= 5662.0852679416 DL=  7.32e-05 (AVERGE_DL)=    0.0001192185 
ITERATION  35 : L= 5662.0853311357 DL=  6.32e-05 (AVERGE_DL)=    0.0001107624 
ITERATION  36 : L= 5662.0853902868 DL=  5.92e-05 (AVERGE_DL)=    0.0001071607 
ITERATION  37 : L= 5662.0854524149 DL=  6.21e-05 (AVERGE_DL)=    0.0001098243 
ITERATION  38 : L= 5662.0855273194 DL=  7.49e-05 (AVERGE_DL)=    0.0001205891 
ITERATION  39 : L= 5662.0856307419 DL=  1.03e-04 (AVERGE_DL)=    0.0001416973 
ITERATION  40 : L= 5662.0857902233 DL=  1.59e-04 (AVERGE_DL)=    0.0001759581 
ITERATION  41 : L= 5662.0860547255 DL=  2.65e-04 (AVERGE_DL)=    0.0002266047 
ITERATION  42 : L= 5662.0865032988 DL=  4.49e-04 (AVERGE_DL)=    0.0002951012 
ITERATION  43 : L= 5662.0872226147 DL=  7.19e-04 (AVERGE_DL)=    0.0003736922 
ITERATION  44 : L= 5662.0881879917 DL=  9.65e-04 (AVERGE_DL)=    0.0004329151 
ITERATION  45 : L= 5662.0891243101 DL=  9.36e-04 (AVERGE_DL)=    0.0004263497 
ITERATION  46 : L= 5662.0897166284 DL=  5.92e-04 (AVERGE_DL)=    0.0003391031 
ITERATION  47 : L= 5662.0899614548 DL=  2.45e-04 (AVERGE_DL)=    0.0002180135 
ITERATION  48 : L= 5662.0900341733 DL=  7.27e-05 (AVERGE_DL)=    0.0001188165 
ITERATION  49 : L= 5662.0900519506 DL=  1.78e-05 (AVERGE_DL)=    0.0000587471 
ITERATION  50 : L= 5662.0900561139 DL=  4.16e-06 (AVERGE_DL)=    0.0000284298 
ITERATION  51 : L= 5662.0900572543 DL=  1.14e-06 (AVERGE_DL)=    0.0000148794 
ITERATION  52 : L= 5662.0900577036 DL=  4.49e-07 (AVERGE_DL)=    0.0000093392 
LOCALIZATION SUM CONVERGED

------------------------------------------------------
AUGMENTED HESSIAN OPTIMIZATION OF FOSTER-BOYS ORBITALS
------------------------------------------------------

Spin operator:           0
Orbital window:          41 to 142
Number of iterations:    128
Gradient tolerance:      1.000e-06
Number of pairs:         5151
Davidson threshold:      2000
Diagonalization method:  Davidson
Iter:    0   L: 5662.0900577036   Grad. norm: 2.098494e-02
   *** Likely close to a maximum now. ***
       Augmented Hessian eigenvalues:  2.48e-06 -1.41e-01 -1.58e-01 -2.09e-01 ... 
Iter:    1   L: 5662.0900589434   Grad. norm: 4.308732e-06
Iter:    2   L: 5662.0900589434   Grad. norm: 1.258198e-10
LOCALIZATION HAS CONVERGED.

Eigenvalues of the Hessian:
  Davidson eigenvalue tolerance: 1.0e-06
  Davidson residual tolerance:   1.0e-06
  0 -1.408e-01
  1 -1.588e-01
  2 -2.085e-01
  3 -2.362e-01
  4 -2.509e-01
  5 -3.534e-01
  6 -3.548e-01
  7 -4.869e-01
  8 -5.202e-01
  9 -6.830e-01
    ...


------------------------------------------------------------------------------- 
                    LOCALIZED MOLECULAR ORBITAL COMPOSITIONS                   
------------------------------------------------------------------------------- 

The Mulliken populations for each LMO on each atom are computed
The LMO`s will be ordered according to atom index and type
  (A) Strongly localized MO`s have populations of >=0.950 on one atom
  (B) Two center bond orbitals have populations of >=0.850 on two atoms
  (C) Other MO`s are considered to be `delocalized`

FOUND  -  24 strongly local MO`s
       -  78 two center bond MO`s
       -   0 significantly delocalized MO`s

Rather strongly localized orbitals:
MO  64:  57O  -   0.971574
MO  63:  57O  -   0.983546
MO  62:  55O  -   0.971625
MO  61:  55O  -   0.980448
MO  60:  50O  -   0.956692
MO  59:  50O  -   0.954324
MO  58:  46O  -   0.959684
MO  57:  46O  -   0.956526
MO  56:  37O  -   0.971903
MO  55:  37O  -   0.973999
MO  54:  31O  -   0.959699
MO  53:  31O  -   0.968506
MO  52:  27O  -   0.960724
MO  51:  27O  -   0.956738
MO  50:  25O  -   0.972525
MO  49:  25O  -   0.977566
MO  48:  20O  -   0.958814
MO  47:  20O  -   0.955080
MO  46:  16O  -   0.956715
MO  45:  16O  -   0.961450
MO  44:   7O  -   0.969151
MO  43:   7O  -   0.972369
MO  42:   1O  -   0.980085
MO  41:   1O  -   0.997225
Bond-like localized orbitals:
MO 142:  58H  -   0.376065  and  57O  -   0.636478
MO 141:  57O  -   0.711855  and  51C  -   0.306045
MO 140:  56H  -   0.365048  and  55O  -   0.647117
MO 139:  55O  -   0.685757  and  53C  -   0.342775
MO 138:  54H  -   0.440984  and  53C  -   0.602175
MO 137:  53C  -   0.509781  and  51C  -   0.557348
MO 136:  53C  -   0.499729  and  38C  -   0.585237
MO 135:  52H  -   0.494070  and  51C  -   0.544616
MO 134:  51C  -   0.538144  and  35C  -   0.527894
MO 133:  50O  -   0.672529  and  49C  -   0.346566
MO 132:  50O  -   0.675938  and  49C  -   0.341502
MO 131:  49C  -   0.442856  and  47N  -   0.625471
MO 130:  49C  -   0.425144  and  40N  -   0.619760
MO 129:  48H  -   0.368542  and  47N  -   0.653183
MO 128:  47N  -   0.669940  and  45C  -   0.398756
MO 127:  47N  -   0.817081  and  45C  -   0.069442
MO 126:  46O  -   0.658885  and  45C  -   0.359037
MO 125:  46O  -   0.664053  and  45C  -   0.350170
MO 124:  45C  -   0.556021  and  43C  -   0.514508
MO 123:  44H  -   0.444810  and  43C  -   0.584457
MO 122:  43C  -   0.551560  and  41C  -   0.436958
MO 121:  43C  -   0.528485  and  41C  -   0.456456
MO 120:  42H  -   0.404190  and  41C  -   0.630494
MO 119:  41C  -   0.405970  and  40N  -   0.636291
MO 118:  41C  -   0.076681  and  40N  -   0.806479
MO 117:  40N  -   0.719768  and  38C  -   0.339604
MO 116:  39H  -   0.470900  and  38C  -   0.567579
MO 115:  38C  -   0.332577  and  37O  -   0.696716
MO 114:  37O  -   0.707379  and  35C  -   0.330120
MO 113:  36H  -   0.505863  and  35C  -   0.528315
MO 112:  35C  -   0.533899  and  32C  -   0.531462
MO 111:  34H  -   0.481657  and  32C  -   0.562613
MO 110:  33H  -   0.501424  and  32C  -   0.528318
MO 109:  32C  -   0.317982  and  31O  -   0.699184
MO 108:  31O  -   0.760834  and  28P  -   0.249304
MO 107:  30O  -   0.789463  and  28P  -   0.221349
MO 106:  30O  -   0.830762  and  28P  -   0.190223
MO 105:  30O  -   0.820085  and  28P  -   0.189718
MO 104:  30O  -   0.941854  and  28P  -   0.057620
MO 103:  29O  -   0.803477  and  28P  -   0.210127
MO 102:  29O  -   0.834967  and  28P  -   0.178511
MO 101:  29O  -   0.934223  and  28P  -   0.067935
MO 100:  29O  -   0.812631  and  28P  -   0.217652
MO  99:  28P  -   0.233257  and  27O  -   0.784818
MO  98:  27O  -   0.683670  and  21C  -   0.322336
MO  97:  26H  -   0.359847  and  25O  -   0.654481
MO  96:  25O  -   0.696763  and  23C  -   0.322088
MO  95:  24H  -   0.467751  and  23C  -   0.577337
MO  94:  23C  -   0.539619  and  21C  -   0.515034
MO  93:  23C  -   0.534889  and   8C  -   0.552442
MO  92:  22H  -   0.480075  and  21C  -   0.553047
MO  91:  21C  -   0.533566  and   5C  -   0.534965
MO  90:  20O  -   0.676228  and  19C  -   0.330561
MO  89:  20O  -   0.664997  and  19C  -   0.355096
MO  88:  19C  -   0.431721  and  17N  -   0.628559
MO  87:  19C  -   0.416894  and  10N  -   0.628183
MO  86:  18H  -   0.369950  and  17N  -   0.650724
MO  85:  17N  -   0.675903  and  15C  -   0.396723
MO  84:  17N  -   0.808930  and  15C  -   0.071857
MO  83:  16O  -   0.663680  and  15C  -   0.353254
MO  82:  16O  -   0.668696  and  15C  -   0.346295
MO  81:  15C  -   0.560217  and  13C  -   0.509562
MO  80:  14H  -   0.463588  and  13C  -   0.575106
MO  79:  13C  -   0.557302  and  11C  -   0.433923
MO  78:  13C  -   0.509908  and  11C  -   0.472224
MO  77:  12H  -   0.420992  and  11C  -   0.624089
MO  76:  11C  -   0.405280  and  10N  -   0.627666
MO  75:  11C  -   0.081805  and  10N  -   0.802542
MO  74:  10N  -   0.738778  and   8C  -   0.319797
MO  73:   9H  -   0.474243  and   8C  -   0.570746
MO  72:   8C  -   0.353680  and   7O  -   0.686017
MO  71:   7O  -   0.713731  and   5C  -   0.323198
MO  70:   6H  -   0.507344  and   5C  -   0.531301
MO  69:   5C  -   0.530632  and   2C  -   0.536614
MO  68:   4H  -   0.475592  and   2C  -   0.561869
MO  67:   3H  -   0.508571  and   2C  -   0.530089
MO  66:   2C  -   0.333979  and   1O  -   0.687433
MO  65:   1O  -   0.612599  and   0H  -   0.390805
Localized MO's were stored in: 05_DLPNO-DSD-BLYP-Expen.loc


Calculating differential overlap integrals ... ok
Threshold for domain construction in prescreening: TCutDOPre = 3.0e-02

--------------------------
ELECTRON PAIR PRESCREENING
--------------------------

Dipole-based pair screening          .... used

   TCutDOij = 1.000000e-05
   TCutPre  = 1.000000e-06
   .... Finished loop over pairs

                  =====================================
                   149 OF 5253 PAIRS WERE SKIPPED 
                  =====================================

Total time spent in the prescreening                  ...     0.139 sec
sum of pair energies estimated for screened out pairs ...      -0.000007922541 Eh

---------------------------
MAP CONSTRUCTION THRESHOLDS
---------------------------
    TCutMKN     ...     1.0e-03
    TCutDO      ...     5.0e-03
    TCutC(MO)   ...     1.0e-03
    TCutC(PAO)  ...     1.0e-03

--------------------------------
LOCAL RI TRANSFORMATION (IAVPAO)
--------------------------------

Orbital window:      41 to 142
Number of PAOs:    2782
Basis functions:   2782 (854 shells)
Aux. functions:    6475 (1581 shells)

Processing maps (1.3 sec)
Average map sizes:
   Aux shells -> MOs             101.9
   Aux shells -> PAOs           2782.0
   MOs        -> AO shells       796.6
   PAOs       -> AO shells       851.7

Calculating integrals (583.4 sec, 14010.362 MB)
Sorting integrals (273.8 sec, 14010.289 MB)
Total time for the integral transformation: 862.0 sec

----------------------------
Local MP2 Energy Calculation
----------------------------
Truncation parameters:
    PAOOverlapThresh    =        1.000e-08
    TCutPNO             =        1.000e-09

Spin component scaling                      .... used.
Same-spin components scaled with:      PT= 0.370
Opposite-spin components scaled with:  PS= 0.460
MP2 energy scaling factor                   .... 1.000

Formation of semicanonical amplitudes.
 10% done.
 20% done.
 30% done.
 40% done.
 50% done.
 60% done.
 70% done.
 80% done.
 90% done.
100% done.

Finished the LMP2 guess in 16825.3 sec.

Average number of PAOs per pair        1752.5
Average number of PNOs per pair         63.7
Average number of AUX  per pair         1788.2

Semicanonical MP2 energy:                   -3.611018190269 Eh
Semicanonical MP2 energy in PNO basis:      -3.610703870802 Eh

Initial amplitudes guess done. Entering DLPNO-MP2 iteration loop:
   Max. no of iterations          ...  100
   Energy convergence tolerance   ...    1.0e-08 Eh
   Residual convergence tolerance ...    5.0e-08
   Fock matrix cutoff             ...    1.0e-05 Eh
   Max # vectors in DIIS          ...  7
   Start iteration of DIIS        ...  0
   Levelshift                     ...  2.000e-01 Eh
   Damping before turning on DIIS ...  5.000e-01
   Damping after turning on DIIS  ...  0.000e+00

                           *** Turning on DIIS ***
Iter=   0:  ECORR= -3.703841711744  DE=   9.3e-02 RMAX=   1.6e-02
Iter=   1:  ECORR= -3.753088439426  DE=   4.9e-02 RMAX=   8.8e-03
Iter=   2:  ECORR= -3.763683008425  DE=   1.1e-02 RMAX=   3.9e-03
Iter=   3:  ECORR= -3.765358646513  DE=   1.7e-03 RMAX=   1.7e-03
Iter=   4:  ECORR= -3.765445436358  DE=   8.7e-05 RMAX=   6.0e-04
Iter=   5:  ECORR= -3.765406754780  DE=   3.9e-05 RMAX=   2.0e-04
Iter=   6:  ECORR= -3.765399059874  DE=   7.7e-06 RMAX=   4.8e-05
Iter=   7:  ECORR= -3.765401077116  DE=   2.0e-06 RMAX=   1.0e-05
Iter=   8:  ECORR= -3.765401813605  DE=   7.4e-07 RMAX=   2.4e-06
Iter=   9:  ECORR= -3.765401766875  DE=   4.7e-08 RMAX=   9.3e-07
Iter=  10:  ECORR= -3.765401719193  DE=   4.8e-08 RMAX=   2.8e-07
Iter=  11:  ECORR= -3.765401667713  DE=   5.1e-08 RMAX=   8.4e-08
Iter=  12:  ECORR= -3.765401654974  DE=   1.3e-08 RMAX=   2.5e-08
Iter=  13:  ECORR= -3.765401651089  DE=   3.9e-09 RMAX=   8.2e-09 => CONVERGED

Finished the DLPNO-MP2 iterations in 7453.4 sec.

LMP2 correlation energy (all non-screened pairs)      ...     -3.765401651089 Eh
Semicanonical PNO correction to energy                ...     -0.000314319467 Eh
Sum of pair energies estimated for screened out pairs ...     -0.000007922541 Eh
                                                         -----------------------
Total:                                                ...     -3.765723893097 Eh

------------------------------------------------------
 DLPNO-MP2 CORRELATION ENERGY:      -3.765723893097 Eh
------------------------------------------------------

TIMINGS FOR DLPNO-MP2:
Localization                             ...       45.163 sec
Differential overlap integrals           ...      104.596 sec
Prescreening                             ...       16.419 sec
Map setup                                ...        2.257 sec
(ia|v) trafo                             ...      862.059 sec
Semicanonical amplitudes                 ...    11214.059 sec
PNO construction                         ...     5377.028 sec
DLPNO-MP2 iterations                     ...     7453.351 sec
                                             ----------------
Total time                                      25337.598 sec


---------------------------------------
MP2 TOTAL ENERGY:    -2311.662186935 Eh
---------------------------------------


-------------------------------------------------------------------------------
                          DFT DISPERSION CORRECTION                            
                                                                               
                              DFTD3 V3.1  Rev 1                                
                          USING Becke-Johnson damping                          
-------------------------------------------------------------------------------
The DSD-BLYP functional is recognized
Active option DFTDOPT                   ...         4   

molecular C6(AA) [au] = 38273.242112 


            DFT-D V3
 parameters
 s6 scaling factor         :     0.5000 
 a1 scaling factor         :     0.0000 
 s8 scaling factor         :     0.2130 
 a2 scaling factor         :     6.0520 
 ad hoc parameters k1-k3   :    16.0000     1.3333    -4.0000 

 Edisp/kcal,au: -33.724956994215  -0.053744134217 
 E6   /kcal   : -26.810217441 
 E8   /kcal   :  -6.914739553 
 % E8         :  20.503330973 

-------------------------   ----------------
Dispersion correction           -0.053744134
-------------------------   ----------------


-------------------------   --------------------
FINAL SINGLE POINT ENERGY     -2311.715931069352
-------------------------   --------------------


                            ***************************************
                            *     ORCA property calculations      *
                            ***************************************


  WARNING: The energy has been calculated at the MP2 level but the densities
           used in the property calculations are still SCF densities
           MP2 response densities have not been calculated 
           use %mp2 Density relaxed end
           or  %mp2 Density unrelaxed end

                                    ---------------------
                                    Active property flags
                                    ---------------------
   (+) Dipole Moment


------------------------------------------------------------------------------
                       ORCA ELECTRIC PROPERTIES CALCULATION
------------------------------------------------------------------------------

Dipole Moment Calculation                       ... on
Quadrupole Moment Calculation                   ... off
Polarizability Calculation                      ... off
GBWName                                         ... 05_DLPNO-DSD-BLYP-Expen.gbw
Electron density file                           ... 05_DLPNO-DSD-BLYP-Expen.scfp
The origin for moment calculation is the CENTER OF MASS  = ( 0.022893,  0.136232  0.255587)

-------------
DIPOLE MOMENT
-------------
                                X             Y             Z
Electronic contribution:     -0.27112       7.12884       6.91173
Nuclear contribution   :      0.46111      -6.71402      -8.79195
                        -----------------------------------------
Total Dipole Moment    :      0.18999       0.41482      -1.88022
                        -----------------------------------------
Magnitude (a.u.)       :      1.93479
Magnitude (Debye)      :      4.91784



--------------------
Rotational spectrum 
--------------------
 
Rotational constants in cm-1:     0.004146     0.003380     0.002301 
Rotational constants in MHz :   124.282266   101.338553    68.991226 

 Dipole components along the rotational axes: 
x,y,z [a.u.] :     0.175835    -0.797705    -1.753897 
x,y,z [Debye]:     0.446936    -2.027606    -4.458052 

 

Timings for individual modules:

Sum of individual times         ...    42670.315 sec (= 711.172 min)
GTO integral calculation        ...       27.560 sec (=   0.459 min)   0.1 %
SCF iterations                  ...    17302.613 sec (= 288.377 min)  40.5 %
MP2 module                      ...    25340.142 sec (= 422.336 min)  59.4 %
                             ****ORCA TERMINATED NORMALLY****
TOTAL RUN TIME: 0 days 11 hours 51 minutes 16 seconds 469 msec
